/*--------------------------------*- C++ -*----------------------------------*\
  =========                 |
  \\      /  F ield         | OpenFOAM: The Open Source CFD Toolbox
   \\    /   O peration     | Website:  https://openfoam.org
    \\  /    A nd           | Version:  10
     \\/     M anipulation  |
\*---------------------------------------------------------------------------*/
FoamFile
{
    format      ascii;
    class       volScalarField;
    location    "600";
    object      k;
}
// * * * * * * * * * * * * * * * * * * * * * * * * * * * * * * * * * * * * * //

dimensions      [0 2 -2 0 0 0 0];

internalField   nonuniform List<scalar> 
27507
(
348.951
348.721
350.108
309.541
25.2022
46.805
63.5791
76.5737
85.8758
91.8751
95.2377
96.6331
96.6202
95.5296
93.5018
91.0705
88.4289
85.6686
82.8564
80.0392
77.2505
74.5158
71.8618
69.3554
67.3181
348.691
347.418
348.322
324.498
31.3222
58.2435
75.4537
86.3909
93.237
97.1933
99.0456
99.3699
98.596
97.1709
94.9487
92.1466
89.2288
86.2596
83.2865
80.3443
77.4579
74.6466
71.9322
69.3779
67.3049
348.215
345.457
344.766
335.264
5.04844
64.8993
90.146
101.453
106.423
108.235
108.273
107.196
105.373
103.029
100.494
97.4294
94.0117
90.6216
87.2868
84.0288
80.8635
77.8017
74.8519
72.0277
69.3858
67.2466
347.642
343.226
338.262
332.032
298.559
29.1314
24.8351
114.901
128.231
131.445
130.802
128.236
124.737
120.823
116.75
112.641
108.555
104.58
100.328
96.2079
92.2617
88.4866
84.8797
81.4377
78.1557
75.0306
72.0665
69.3116
67.0843
347.069
341.117
334.323
324.287
311.066
278.475
230.796
208.695
191.087
177.338
166.084
156.382
147.7
139.787
132.523
125.829
119.641
113.905
108.563
103.058
98.2705
93.7805
89.5661
85.6049
81.8774
78.3661
75.057
71.9445
69.0676
66.7402
346.557
339.349
331.199
320.671
305.776
289.513
264.121
237.985
217.951
200.415
185.192
171.904
160.189
149.763
140.414
131.984
124.345
117.399
111.075
105.202
99.8223
94.8571
90.2556
85.9796
81.9959
78.2764
74.7983
71.5487
68.5564
66.1257
346.125
337.882
328.631
317.502
303.481
286.057
266.523
246.2
227.041
209.477
193.619
179.393
166.648
155.209
144.917
135.633
127.235
119.618
112.696
106.356
100.557
95.2352
90.3355
85.8115
81.6237
77.7375
74.1244
70.7651
67.6775
65.1476
345.765
336.621
326.384
314.547
300.614
284.45
266.683
248.229
230.162
213.078
197.26
182.788
169.635
157.719
146.934
137.172
128.326
120.301
113.008
106.357
100.283
94.7242
89.624
84.9331
80.6086
76.612
72.9112
69.4818
66.3302
63.7103
345.46
335.447
324.174
311.428
297.07
281.167
264.153
246.646
229.352
212.78
197.225
182.827
169.613
157.55
146.576
136.607
127.555
119.332
111.857
105.047
98.836
93.1601
87.9628
83.1938
78.8087
74.7673
71.0354
67.5852
64.411
61.7138
345.192
334.216
321.668
307.671
292.418
276.15
259.236
242.132
225.315
209.169
193.946
179.785
166.723
154.746
143.813
133.858
124.804
116.572
109.085
102.268
96.0532
90.3799
85.1916
80.4384
76.0755
72.0624
68.3642
64.9508
61.8064
59.0479
344.946
332.719
318.381
302.58
285.912
268.791
251.554
234.518
217.99
202.225
187.396
173.603
160.864
149.17
138.483
128.744
119.879
111.817
104.484
97.8094
91.729
86.1829
81.1161
76.4799
72.2304
68.3273
64.7364
61.4256
58.3777
55.5787
344.703
330.559
313.415
294.929
276.231
257.857
240.051
222.952
206.689
191.368
177.066
163.815
151.606
140.415
130.196
120.887
112.417
104.718
97.719
91.3533
85.5589
80.2788
75.4601
71.056
67.0245
63.326
59.9292
56.797
53.9337
51.1242
344.435
326.761
304.764
282.236
260.847
241.006
222.662
205.654
189.884
175.276
161.792
149.388
138.02
127.635
118.173
109.568
101.751
94.6538
88.2096
82.3555
77.0332
72.1893
67.7743
63.7441
60.0599
56.683
53.5901
50.7263
48.169
45.4
343.978
318.202
287.12
258.793
234.437
213.538
195.291
179.077
164.489
151.242
139.182
128.194
118.19
109.093
100.833
93.3412
86.5502
80.3966
74.8197
69.7623
65.172
61.001
57.2051
53.745
50.5876
47.6929
45.0599
42.579
40.5021
37.8763
341.91
291.591
243.99
209.624
184.199
164.606
148.655
135.164
123.421
112.988
103.625
95.1785
87.5464
80.6379
74.3837
68.7281
63.6171
58.9991
54.8252
51.05
47.6312
44.532
41.7165
39.1544
36.8241
34.6756
32.7697
30.854
29.5181
27.2853
317.06
174.865
118.163
91.1685
75.6737
65.5792
58.2051
52.3738
47.5082
43.2989
39.583
36.2665
33.2899
30.6178
28.2136
26.0449
24.0875
22.3201
20.724
19.2809
17.9763
16.7916
15.7231
14.7371
13.8695
13.0182
12.3508
11.5397
11.1428
10.1564
348.69
347.416
348.306
323.92
30.5724
57.904
75.3041
86.3225
93.2037
97.1759
99.0358
99.3641
98.5923
97.1681
94.9464
92.1448
89.2275
86.2586
83.2857
80.3437
77.4574
74.6462
71.9318
69.3776
67.3046
348.448
346.36
346.707
331.039
41.862
70.6318
86.2777
94.9023
99.611
101.867
102.452
101.859
100.42
98.681
96.2722
93.1392
89.9706
86.8086
83.6859
80.627
77.6489
74.7653
71.9936
69.3937
67.2866
348.009
344.658
343.497
333.227
128.06
17.9146
82.5231
101.955
109.862
112.653
112.914
111.793
109.848
107.371
104.536
101.76
98.5444
94.8571
91.2584
87.7601
84.3732
81.106
77.9631
74.9488
72.0731
69.3898
67.2192
347.482
342.632
337.143
331.329
305.461
95.4534
67.8251
134.689
139.6
138.993
136.205
132.293
127.859
123.251
118.644
114.116
109.701
105.567
101.201
96.8786
92.7711
88.8664
85.1552
81.6291
78.2792
75.0994
72.0911
69.3002
67.0449
346.953
340.724
333.718
327.395
311.553
283.136
241.595
217.571
197.857
182.645
170.267
159.708
150.372
141.949
134.275
127.247
120.783
114.818
109.287
103.701
98.771
94.1625
89.8501
85.8082
82.0144
78.4488
75.0952
71.9462
69.039
66.6875
346.476
339.082
330.755
320.079
305.581
290.13
265.934
240.49
220.562
202.902
187.448
173.893
161.911
151.235
141.659
133.026
125.209
118.106
111.643
105.654
100.174
95.1244
90.4515
86.1153
82.0812
78.3194
74.8064
71.5276
68.5108
66.0598
346.069
337.701
328.33
317.131
303.235
286.165
267.083
247.171
228.223
210.723
194.834
180.525
167.669
156.111
145.7
136.301
127.796
120.083
113.072
106.656
100.788
95.4071
90.4562
85.8882
81.663
77.7451
74.1054
70.7235
67.6167
65.0699
345.726
336.496
326.176
314.292
300.401
284.389
266.837
248.605
230.696
213.698
197.907
183.421
170.228
158.257
147.41
137.584
128.675
120.59
113.241
106.539
100.419
94.8194
89.6834
84.9614
80.6099
76.5901
72.8694
69.4232
66.2569
63.6232
345.433
335.359
324.026
311.239
296.888
281.05
264.142
246.756
229.565
213.062
197.543
183.156
169.933
157.848
146.843
136.84
127.751
119.493
111.983
105.141
98.8998
93.1967
87.975
83.1845
78.7804
74.7225
70.9763
67.514
64.3289
61.6207
345.174
334.153
321.558
307.523
292.258
276.013
259.15
242.111
225.357
209.261
194.071
179.927
166.869
154.886
143.94
133.969
124.896
116.643
109.135
102.298
96.0648
90.374
85.1697
80.402
76.0263
72.0019
68.2937
64.8717
61.7197
58.9524
344.933
332.673
318.296
302.459
285.769
268.647
251.43
234.428
217.938
202.207
187.403
173.628
160.899
149.208
138.519
128.773
119.9
111.827
104.483
97.7973
91.7056
86.1489
81.0721
76.4266
72.1687
68.2582
64.6607
61.3441
58.2911
55.4852
344.695
330.526
313.348
294.828
276.101
257.712
239.909
222.824
206.583
191.285
177.004
163.769
151.573
140.39
130.174
120.865
112.394
104.691
97.6872
91.316
85.5157
80.2297
75.4053
70.9957
66.9589
63.2557
59.8547
56.7187
53.8522
51.0376
344.43
326.737
304.711
282.148
260.728
240.864
222.512
205.508
189.75
175.158
161.691
149.304
137.949
127.574
118.12
109.52
101.706
94.6089
88.1642
82.3085
76.9839
72.1373
67.7194
63.686
59.9989
56.6191
53.5235
50.6573
48.0979
45.3255
343.975
318.186
287.078
258.717
234.326
213.402
195.141
178.926
164.346
151.112
139.068
128.096
118.106
109.022
100.772
93.2869
86.5013
80.3511
74.7762
69.7196
65.1291
60.9573
57.1601
53.6984
50.5393
47.6429
45.0081
42.5255
40.4468
37.8198
341.909
291.581
243.955
209.558
184.101
164.485
148.52
135.028
123.291
112.87
103.522
95.091
87.4729
80.5773
74.3339
68.6869
63.5823
58.9688
54.7979
51.0244
47.6063
44.5071
41.6911
39.128
36.7966
34.6468
32.7394
30.8231
29.4837
27.2537
317.06
174.86
118.143
91.1338
75.6247
65.5204
58.1409
52.3095
47.4476
43.2447
39.5365
36.2279
33.2587
30.5925
28.1934
26.029
24.0748
22.3099
20.7156
19.2736
17.9697
16.7852
15.7168
14.7305
13.8627
13.0106
12.343
11.5315
11.1326
10.1507
348.214
345.454
344.749
335.142
4.6454
64.071
89.7577
101.243
106.307
108.169
108.234
107.172
105.357
103.019
100.486
97.4236
94.0072
90.6182
87.284
84.0266
80.8618
77.8002
74.8507
72.0267
69.3849
67.2459
348.008
344.656
343.495
333.346
96.5984
20.1569
82.5106
101.811
109.755
112.587
112.875
111.769
109.833
107.36
104.529
101.755
98.5408
94.8543
91.2562
87.7583
84.3718
81.1049
77.9622
74.9481
72.0725
69.3893
67.2187
347.644
343.271
340.982
332.721
292.335
104.217
122.14
127.265
127.734
125.915
122.966
119.47
115.72
111.86
107.965
104.356
100.458
96.3186
92.3602
88.5756
84.9606
81.5112
78.2227
75.0919
72.1226
69.3637
67.1345
347.197
341.599
335.275
329.481
310.442
262.03
195.036
177.85
170.23
162.12
154.727
147.808
141.16
134.774
128.69
122.928
117.485
112.34
107.598
102.704
98.0378
93.6493
89.5158
85.6188
81.9419
78.4698
75.1909
72.1022
69.2455
66.9381
346.743
340.007
332.421
322.182
311.352
287.628
257.777
230.963
209.558
192.397
178.253
166.219
155.689
146.299
137.832
130.144
123.128
116.702
110.786
104.812
99.6321
94.8144
90.3276
86.1412
82.2283
78.5646
75.1303
71.915
68.9527
66.556
346.328
338.594
329.924
319.181
304.958
286.575
265.583
244.37
224.666
206.927
191.181
177.235
164.836
153.754
143.801
134.825
126.7
119.325
112.621
106.426
100.77
95.5703
90.7698
86.3254
82.2003
78.3624
74.786
71.4546
68.3931
65.9039
345.965
337.366
327.771
316.473
302.719
286.216
267.781
248.661
230.111
212.765
196.862
182.436
169.408
157.654
147.041
137.447
128.757
120.874
113.708
107.155
101.166
95.6795
90.6369
85.9902
81.6977
77.7228
74.035
70.6126
67.4708
64.8925
345.653
336.262
325.785
313.808
299.967
284.199
266.995
249.155
231.531
214.697
198.969
184.473
171.221
159.16
148.209
138.272
129.254
121.064
113.616
106.824
100.623
94.9514
89.7517
84.974
80.5743
76.5131
72.7572
69.2809
66.0882
63.4288
345.382
335.192
323.74
310.869
296.513
280.776
264.042
246.869
229.859
213.483
198.036
183.673
170.441
158.322
147.267
137.205
128.055
119.735
112.164
105.266
98.9716
93.2208
87.9563
83.1277
78.6903
74.6034
70.8322
67.3484
64.1442
61.4154
345.139
334.031
321.342
307.227
291.926
275.708
258.926
241.998
225.355
209.349
194.221
180.11
167.064
155.075
144.111
134.112
125.007
116.721
109.178
102.307
96.0408
90.32
85.0881
80.2956
75.8978
71.8539
68.1289
64.6923
61.5271
58.7437
344.909
332.583
318.128
302.214
285.47
268.335
251.144
234.195
217.77
202.099
187.344
173.602
160.895
149.212
138.522
128.768
119.882
111.794
104.432
97.7277
91.6179
86.0437
80.9505
76.2899
72.0182
68.0954
64.4871
61.161
58.0999
55.2816
344.679
330.459
313.214
294.62
275.829
257.403
239.592
222.528
206.321
191.064
176.82
163.617
151.445
140.279
130.073
120.768
112.297
104.59
97.5804
91.2017
85.3931
80.0984
75.2654
70.8474
66.8029
63.0925
59.6852
56.5434
53.6724
50.8486
344.419
326.689
304.604
281.969
260.479
240.564
222.186
205.183
189.442
174.877
161.442
149.085
137.757
127.404
117.966
109.378
101.571
94.4786
88.0355
82.1794
76.8531
72.0036
67.5822
63.5451
59.8541
56.4705
53.3715
50.5017
47.9403
45.1616
343.969
318.154
286.992
258.561
234.099
213.119
194.825
178.601
164.029
150.817
138.802
127.859
117.897
108.838
100.608
93.1399
86.3668
80.2257
74.6568
69.604
65.0154
60.8441
57.0464
53.5835
50.4228
47.5243
44.8876
42.4031
40.3221
37.6936
341.907
291.561
243.887
209.427
183.906
164.239
148.244
134.743
123.014
112.612
103.291
94.8882
87.2968
80.4264
74.2047
68.5754
63.4846
58.8816
54.7181
50.9497
47.5347
44.4371
41.6215
39.0581
36.7257
34.5746
32.6654
30.7494
29.4006
27.184
317.06
174.85
118.107
91.0699
75.5326
65.4073
58.0151
52.1807
47.3238
43.1311
39.4361
36.1417
33.1862
30.5313
28.1422
25.9862
24.0389
22.2794
20.6889
19.2498
17.9478
16.7644
15.6966
14.7105
13.8422
12.9911
12.3173
11.527
11.0427
10.1909
347.642
343.221
338.242
332.011
298.878
22.1678
114.818
128.057
131.255
130.653
128.133
124.667
120.776
116.718
112.618
108.538
104.568
100.319
96.2007
92.2559
88.4819
84.8759
81.4346
78.1531
75.0284
72.0646
69.31
67.0829
347.482
342.629
337.134
331.335
305.705
99.3641
58.0983
134.549
139.486
138.873
136.103
132.218
127.807
123.215
118.618
114.098
109.688
105.558
101.194
96.873
92.7666
88.8628
85.1522
81.6266
78.2772
75.0976
72.0896
69.2989
67.0438
347.197
341.598
335.273
329.493
310.498
262.274
195.64
177.791
170.137
162.067
154.684
147.769
141.13
134.751
128.673
122.916
117.475
112.333
107.593
102.7
98.0348
93.6469
89.5138
85.6172
81.9405
78.4686
75.1899
72.1014
69.2447
66.9374
346.845
340.361
333.058
322.974
311.612
285.583
250.723
221.231
200.537
184.709
171.975
161.21
151.74
143.213
135.449
128.337
121.795
115.756
110.149
104.469
99.3915
94.6619
90.247
86.1191
82.2529
78.6264
75.222
72.0309
69.089
66.7118
346.48
339.119
330.867
320.41
305.919
290.643
266.459
242.271
220.932
202.731
187.211
173.805
162.045
151.592
142.215
133.748
126.066
119.073
112.674
106.104
100.62
95.5447
90.8415
86.4746
82.4119
78.6242
75.0876
71.788
68.7546
66.2972
346.136
337.968
328.86
317.933
304.15
287.042
267.724
247.836
228.776
211.199
195.288
180.999
168.181
156.664
146.289
136.919
128.434
120.735
113.741
107.297
101.426
96.0399
91.08
86.5
82.2605
78.3269
74.6706
71.2724
68.1538
65.6132
345.828
336.922
327.024
315.564
301.962
286.034
268.393
250.06
232.03
214.937
199.087
184.575
171.377
159.411
148.571
138.748
129.841
121.754
114.401
107.68
101.543
95.9251
90.7687
86.0239
81.6475
77.6014
73.8535
70.3805
67.1944
64.5736
345.556
335.942
325.241
313.119
299.303
283.785
266.983
249.582
232.309
215.699
200.075
185.593
172.289
160.134
149.066
139.003
129.856
121.541
113.975
107.074
100.774
95.0144
89.7367
84.8907
80.4318
76.3198
72.5206
69.0076
65.7821
63.0882
345.313
334.957
323.33
310.322
295.926
280.278
263.736
246.805
230.016
213.804
198.457
184.14
170.909
158.759
147.652
137.526
128.306
119.913
112.272
105.306
98.9502
93.1426
87.827
82.9532
78.476
74.3547
70.5541
67.045
63.8181
61.0619
345.089
333.856
321.022
306.777
291.399
275.183
258.477
241.671
225.159
209.266
194.22
180.16
167.138
155.151
144.172
134.147
125.009
116.686
109.105
102.196
95.8942
90.1397
84.8769
80.0565
75.6339
71.5684
67.8246
64.372
61.1925
58.3879
344.874
332.451
317.873
301.833
284.99
267.808
250.624
233.725
217.371
201.774
187.082
173.388
160.714
149.05
138.367
128.611
119.717
111.615
104.238
97.5166
91.3893
85.7979
80.6884
76.0128
71.7275
67.7925
64.1737
60.8387
57.7699
54.9359
344.655
330.36
313.009
294.292
275.39
256.886
239.042
221.984
205.811
190.6
176.404
163.245
151.111
139.973
129.788
120.496
112.032
104.328
97.3177
90.9359
85.1226
79.8224
74.9833
70.5594
66.5091
62.7934
59.3814
56.2354
53.362
50.527
344.404
326.616
304.438
281.685
260.077
240.07
221.635
204.613
188.883
174.349
160.952
148.636
137.348
127.03
117.62
109.055
101.266
94.1864
87.7524
81.9023
76.5796
71.732
67.3113
63.274
59.5823
56.1977
53.0978
50.2266
47.6664
44.8801
343.961
318.104
286.86
258.317
233.739
212.662
194.302
178.05
163.479
150.29
138.31
127.408
117.486
108.464
100.268
92.8279
86.0778
79.9552
74.4006
69.3586
64.7781
60.6126
56.819
53.3587
50.1998
47.3023
44.6667
42.1813
40.1037
37.4697
341.905
291.531
243.784
209.228
183.606
163.856
147.803
134.278
122.55
112.169
102.881
94.5162
86.9625
80.1292
73.9407
68.3398
63.2725
58.6883
54.5396
50.7824
47.3757
44.2842
41.4728
38.9122
36.5819
34.4313
32.5238
30.6055
29.261
27.0391
317.059
174.837
118.056
90.9774
75.3973
65.2382
57.8232
51.9799
47.1255
42.9439
39.2653
35.9895
33.0527
30.4141
28.0398
25.8969
23.9604
22.2098
20.6265
19.1928
17.8949
16.7145
15.649
14.6641
13.7972
12.9457
12.2739
11.4804
11.0008
10.144
347.069
341.125
334.394
328.076
311.388
278.864
229.947
208.574
191.028
177.263
165.996
156.299
147.63
139.732
132.481
125.797
119.616
113.886
108.548
103.046
98.261
93.7728
89.5597
85.5996
81.873
78.3624
75.0538
71.9418
69.0653
66.738
346.953
340.725
333.718
327.462
311.642
283.218
241.348
217.339
197.796
182.584
170.201
159.644
150.317
141.904
134.24
127.22
120.762
114.801
109.274
103.691
98.7629
94.1559
89.8446
85.8036
82.0105
78.4456
75.0924
71.9438
69.037
66.6856
346.744
340.007
332.42
322.187
311.377
287.644
257.788
230.955
209.529
192.364
178.217
166.183
155.657
146.272
137.81
130.126
123.114
116.69
110.777
104.805
99.6265
94.8097
90.3236
86.1379
82.2255
78.5622
75.1282
71.9132
68.9512
66.5546
346.48
339.119
330.867
320.411
305.923
290.646
266.462
242.271
220.925
202.72
187.198
173.792
162.033
151.581
142.205
133.74
126.06
119.067
112.67
106.1
100.617
95.5424
90.8396
86.4729
82.4104
78.6229
75.0866
71.7871
68.7538
66.2965
346.199
338.187
329.255
318.471
304.747
291.699
271.15
249.689
229.428
211.168
194.99
180.684
167.981
156.634
146.446
137.257
128.939
121.388
114.514
107.256
101.467
96.1281
91.2023
86.6492
82.4309
78.5139
74.8705
71.4823
68.373
65.8459
345.926
337.279
327.685
316.488
302.986
286.846
268.902
250.24
231.954
214.716
198.817
184.325
171.189
159.305
148.553
138.818
129.991
121.978
114.7
108.008
101.92
96.3438
91.2205
86.5011
82.1437
78.1112
74.3723
70.9053
67.7264
65.1268
345.673
336.411
326.153
314.457
300.92
285.443
268.505
250.893
233.409
216.635
200.909
186.376
173.059
160.918
149.875
139.843
130.728
122.442
114.905
108.019
101.734
95.9849
90.7137
85.8695
81.4082
77.29
73.4816
69.9578
66.7263
64.0566
345.442
335.559
324.576
312.237
298.375
283.034
266.582
249.59
232.67
216.308
200.823
186.388
173.063
160.839
149.673
139.496
130.231
121.798
114.119
107.114
100.719
94.873
89.519
84.6062
80.0895
75.9283
72.0875
68.5393
65.2818
62.5486
345.229
334.665
322.806
309.594
295.089
279.469
263.076
246.358
229.786
213.749
198.522
184.271
171.063
158.901
147.758
137.581
128.302
119.846
112.142
105.116
98.7039
92.8447
87.4826
82.5675
78.0544
73.9022
70.0756
66.5446
63.2974
60.5105
345.028
333.63
320.598
306.157
290.634
274.36
257.684
240.973
224.58
208.801
193.849
179.855
166.875
154.906
143.928
133.892
124.734
116.385
108.777
101.84
95.51
89.7292
84.4423
79.6002
75.1586
71.0767
67.3193
63.8554
60.6655
57.8382
344.829
332.275
317.524
301.294
284.285
266.993
249.768
232.888
216.589
201.061
186.439
172.805
160.179
148.551
137.891
128.149
119.261
111.16
103.779
97.0517
90.9172
85.3181
80.2009
75.518
71.2263
67.286
63.6629
60.3246
57.2536
54.4038
344.624
330.224
312.72
293.82
274.739
256.096
238.168
221.081
204.922
189.75
175.606
162.5
150.417
139.324
129.176
119.914
111.473
103.787
96.7899
90.4179
84.6117
79.3165
74.4813
70.0603
66.0125
62.299
58.8894
55.7455
52.8762
50.0313
344.384
326.516
304.202
281.274
259.484
239.321
220.78
203.704
187.964
173.451
160.094
147.828
136.592
126.323
116.96
108.434
100.679
93.6279
87.2175
81.3869
76.0801
71.2457
66.8358
62.8076
59.1237
55.7458
52.6523
49.7859
47.2341
44.4423
343.95
318.035
286.671
257.965
233.213
211.983
193.512
177.198
162.607
149.432
137.488
126.633
116.764
107.794
99.6467
92.2508
85.5395
79.4501
73.9238
68.9054
64.3446
60.1956
56.4156
52.9668
49.8177
46.9282
44.3006
41.8195
39.7534
37.1147
341.901
291.49
243.643
208.952
183.184
163.306
147.16
133.584
121.841
111.474
102.219
93.8978
86.3914
79.607
73.4646
67.9052
62.8742
58.321
54.1981
50.4624
47.0734
43.9964
41.1969
38.6458
36.3238
34.1789
32.279
30.3602
29.0331
26.7949
317.059
174.82
117.992
90.8571
75.2177
65.0087
57.557
51.6943
46.8356
42.6621
38.9998
35.7448
32.8304
30.2126
27.8581
25.7331
23.8125
22.0755
20.5037
19.0795
17.7894
16.6153
15.5549
14.5739
13.7109
12.8605
12.1963
11.3837
10.9877
10.0022
346.558
339.351
331.204
320.563
305.806
289.545
264.095
237.98
217.931
200.38
185.148
171.858
160.146
149.724
140.381
131.956
124.322
117.38
111.059
105.189
99.8112
94.8478
90.2478
85.9729
81.9903
78.2715
74.7941
71.5451
68.5532
66.1228
346.476
339.083
330.754
320.061
305.592
290.15
265.919
240.492
220.547
202.874
187.413
173.856
161.875
151.203
141.631
133.002
125.189
118.089
111.629
105.642
100.164
95.1161
90.4445
86.1093
82.0761
78.3151
74.8026
71.5243
68.5079
66.0571
346.328
338.595
329.923
319.179
304.963
286.58
265.586
244.369
224.656
206.909
191.158
177.21
164.812
153.732
143.781
134.808
126.685
119.312
112.61
106.417
100.763
95.5638
90.7642
86.3207
82.1962
78.3589
74.783
71.4519
68.3908
65.9018
346.136
337.968
328.86
317.933
304.152
287.044
267.725
247.834
228.771
211.189
195.276
180.986
168.168
156.651
146.277
136.908
128.425
120.727
113.734
107.291
101.421
96.0355
91.0763
86.4968
82.2577
78.3244
74.6684
71.2706
68.1521
65.6117
345.926
337.279
327.685
316.488
302.987
286.847
268.902
250.239
231.952
214.712
198.812
184.32
171.184
159.3
148.548
138.813
129.987
121.974
114.696
108.005
101.917
96.3417
91.2187
86.4996
82.1424
78.1099
74.3713
70.9044
67.7255
65.126
345.715
336.573
326.462
314.907
301.457
285.969
268.969
251.269
233.702
216.87
201.111
186.566
173.251
161.121
150.094
140.077
130.978
122.708
115.187
108.306
102.03
96.2882
91.0221
86.1811
81.7209
77.6025
73.7925
70.2663
67.0339
64.3729
345.512
335.862
325.187
313.166
299.551
284.333
267.896
250.851
233.849
217.406
201.852
187.365
174.003
161.754
150.57
140.38
131.104
122.662
114.974
107.956
101.548
95.6898
90.3225
85.3954
80.8635
76.6861
72.8285
69.2638
65.9943
63.2741
345.32
335.128
323.797
311.152
297.129
281.835
265.604
248.923
232.305
216.182
200.855
186.501
173.196
160.947
149.724
139.473
130.125
121.606
113.842
106.758
100.291
94.3788
88.9662
84.0025
79.4424
75.2447
71.374
67.8012
64.52
61.7467
345.136
334.322
322.163
308.657
293.94
278.242
261.901
245.324
228.923
213.046
197.946
183.78
170.622
158.481
147.334
137.137
127.828
119.338
111.597
104.534
98.0868
92.1952
86.804
81.8636
77.329
73.1593
69.3187
65.7769
62.5186
59.7015
344.957
333.354
320.058
305.332
289.564
273.135
256.406
239.725
223.412
207.731
192.872
178.958
166.04
154.116
143.166
133.147
123.996
115.649
108.037
101.094
94.7574
88.9697
83.6763
78.8287
74.3829
70.2984
66.5399
63.0762
59.8863
57.0378
344.776
332.052
317.064
300.558
283.285
265.79
248.445
231.523
215.241
199.766
185.211
171.647
159.087
147.517
136.907
127.205
118.349
110.274
102.914
96.2034
90.0828
84.4954
79.3884
74.7149
70.432
66.5002
62.8857
59.5559
56.4939
53.6315
344.584
330.047
312.329
293.161
273.808
254.934
236.846
219.673
203.49
188.341
174.244
161.201
149.185
138.158
128.072
118.865
110.473
102.83
95.8694
89.5295
83.7513
78.4807
73.6672
69.2656
65.2355
61.5383
58.1439
55.0138
52.1603
49.3104
344.358
326.38
303.875
280.692
258.631
238.229
219.508
202.324
186.538
172.029
158.709
146.499
135.33
125.132
115.837
107.375
99.6781
92.6795
86.3156
80.526
75.2554
70.4528
66.0712
62.0681
58.4068
55.0491
51.9744
49.124
46.5919
43.8017
343.935
317.941
286.409
257.471
232.466
211.006
192.36
175.935
161.291
148.114
136.201
125.399
115.596
106.696
98.6181
91.2882
84.6377
78.6033
73.1259
68.1508
63.6281
59.5124
55.7619
52.3389
49.2129
46.3436
43.7352
41.2686
39.2227
36.5903
341.896
291.435
243.453
208.577
182.604
162.542
146.252
132.587
120.802
110.435
101.208
92.9345
85.4848
78.7624
72.6818
67.1808
62.2032
57.6977
53.6169
49.9179
46.5608
43.5113
40.7358
38.2053
35.9018
33.772
31.8879
29.9786
28.6668
26.4369
317.059
174.801
117.913
90.7061
74.9869
64.707
57.1995
51.3018
46.4275
42.2555
38.6068
35.3729
32.4837
29.8912
27.5619
25.4609
23.5625
21.8454
20.291
18.8821
17.6053
16.4423
15.3919
14.4189
13.5636
12.7188
12.0604
11.2529
10.8607
9.87802
346.125
337.881
328.625
317.461
303.477
286.057
266.519
246.194
227.027
209.454
193.589
179.36
166.615
155.178
144.889
135.608
127.213
119.599
112.679
106.342
100.545
95.2249
90.3266
85.8038
81.617
77.7317
74.1194
70.7607
67.6736
65.144
346.069
337.7
328.326
317.115
303.233
286.166
267.081
247.166
228.211
210.703
194.808
180.496
167.641
156.084
145.675
136.279
127.777
120.066
113.057
106.643
100.777
95.3977
90.448
85.8812
81.6569
77.7398
74.1007
70.7194
67.613
65.0666
345.965
337.366
327.769
316.468
302.718
286.216
267.78
248.657
230.102
212.75
196.843
182.415
169.387
157.633
147.022
137.429
128.742
120.86
113.696
107.144
101.157
95.6716
90.6301
85.9842
81.6925
77.7183
74.031
70.6091
67.4677
64.8896
345.828
336.922
327.024
315.563
301.962
286.034
268.392
250.057
232.024
214.928
199.075
184.561
171.363
159.397
148.557
138.736
129.83
121.744
114.392
107.672
101.536
95.9192
90.7636
86.0194
81.6436
77.5979
73.8504
70.3778
67.192
64.5713
345.673
336.411
326.152
314.456
300.92
285.442
268.504
250.891
233.405
216.63
200.903
186.368
173.051
160.91
149.868
139.835
130.721
122.436
114.9
108.014
101.729
95.9811
90.7104
85.8666
81.4056
77.2877
73.4796
69.956
66.7246
64.055
345.512
335.862
325.187
313.165
299.551
284.333
267.896
250.85
233.848
217.403
201.849
187.362
173.999
161.751
150.567
140.377
131.102
122.659
114.971
107.953
101.546
95.6881
90.3209
85.394
80.8622
76.685
72.8275
69.263
65.9935
63.2733
345.351
335.279
324.118
311.654
297.785
282.592
266.41
249.736
233.101
216.949
201.588
187.201
173.867
161.592
150.345
140.073
130.705
122.167
114.386
107.286
100.802
94.8741
89.4464
84.4681
79.8936
75.682
71.7975
68.2118
64.9204
62.1521
345.192
334.647
322.886
309.815
295.478
280.055
263.876
247.365
230.962
215.04
199.872
185.628
172.389
160.169
148.946
138.677
129.3
120.746
112.945
105.825
99.3242
93.382
87.943
82.9572
78.3797
74.1691
70.2897
66.7115
63.4226
60.6122
345.036
333.922
321.374
307.454
292.383
276.459
260.035
243.491
227.191
211.439
196.461
182.4
169.325
157.244
146.138
135.968
126.676
118.194
110.457
103.396
96.9489
91.0576
85.6671
80.7285
76.1973
72.0326
68.1986
64.6647
61.4118
58.5683
344.877
333.018
319.367
304.235
288.088
271.369
254.468
237.726
221.432
205.818
191.049
177.228
164.398
152.553
141.671
131.709
122.606
114.299
106.722
99.8091
93.4991
87.7352
82.4637
77.6368
73.2108
69.1456
65.4061
61.961
58.788
55.9235
344.713
331.771
316.455
299.552
281.884
264.058
246.484
229.438
213.12
197.669
183.178
169.696
157.225
145.744
135.219
125.594
116.809
108.797
101.493
94.8338
88.7588
83.2127
78.1434
73.5044
69.2536
65.3519
61.7658
58.4625
55.4269
52.5584
344.537
329.815
311.795
292.242
272.487
253.261
234.91
217.575
201.321
186.168
172.116
159.145
147.218
136.287
126.295
117.18
108.873
101.307
94.4181
88.1428
82.4231
77.2055
72.4402
68.0825
64.0927
60.4324
57.0725
53.9736
51.1534
48.3069
344.324
326.198
303.418
279.868
257.414
236.657
217.663
200.3
184.423
169.895
156.607
144.465
133.384
123.283
114.087
105.723
98.1183
91.2053
84.9201
79.2021
73.9964
69.2526
64.9241
60.9692
57.3517
54.0338
50.9962
48.1778
45.6824
42.9041
343.915
317.811
286.04
256.769
231.402
209.613
190.707
174.109
159.372
146.172
134.286
123.547
113.826
105.02
97.0394
89.805
83.2454
77.2955
71.8957
66.9912
62.5321
58.4738
54.7749
51.3983
48.3144
45.4825
42.9098
40.4717
38.4609
35.8469
341.889
291.36
243.191
208.057
181.8
161.476
144.98
131.175
119.315
108.931
99.7278
91.5066
84.126
77.4826
71.4841
66.0636
61.1622
56.727
52.7102
49.0688
45.7632
42.7596
40.0251
37.5309
35.2606
33.1588
31.3034
29.414
28.1284
25.9192
317.058
174.778
117.815
90.5131
74.6864
64.3075
56.7194
50.7667
45.8622
41.6827
38.0434
34.8307
31.9698
29.4082
27.1109
25.0416
23.1734
21.4844
19.9557
18.5697
17.3135
16.1687
15.1348
14.1757
13.3337
12.4995
11.8518
11.0534
10.6677
9.69597
345.765
336.619
326.378
314.529
300.605
284.445
266.677
248.221
230.149
213.06
197.237
182.762
169.608
157.693
146.91
137.149
128.306
120.283
112.992
106.343
100.271
94.7133
89.6143
84.9247
80.6012
76.6055
72.9054
69.4767
66.3256
63.7061
345.726
336.495
326.172
314.281
300.395
284.385
266.832
248.598
230.684
213.681
197.886
183.398
170.204
158.234
147.388
137.563
128.656
120.573
113.226
106.526
100.407
94.8093
89.6745
84.9535
80.6029
76.584
72.864
69.4185
66.2526
63.6193
345.653
336.261
325.782
313.803
299.964
284.196
266.991
249.149
231.521
214.684
198.952
184.455
171.201
159.141
148.19
138.255
129.238
121.05
113.604
106.813
100.613
94.9427
89.7439
84.9672
80.5683
76.5078
72.7524
69.2767
66.0844
63.4253
345.556
335.942
325.24
313.116
299.301
283.783
266.98
249.578
232.302
215.689
200.063
185.579
172.275
160.12
149.053
138.99
129.844
121.53
113.965
107.065
100.766
95.0074
89.7305
84.8852
80.4269
76.3154
72.5167
69.0041
65.779
63.0853
345.442
335.559
324.575
312.235
298.374
283.032
266.579
249.586
232.665
216.302
200.815
186.379
173.054
160.83
149.664
139.487
130.223
121.79
114.112
107.108
100.713
94.868
89.5145
84.6022
80.0859
75.9251
72.0846
68.5368
65.2795
62.5465
345.32
335.127
323.797
311.151
297.128
281.834
265.603
248.921
232.302
216.179
200.85
186.496
173.191
160.941
149.718
139.468
130.12
121.601
113.838
106.754
100.287
94.3756
88.9634
84
79.4401
75.2427
71.3721
67.7995
64.5185
61.7453
345.192
334.647
322.886
309.814
295.477
280.054
263.875
247.364
230.961
215.039
199.87
185.625
172.387
160.167
148.944
138.675
129.298
120.744
112.943
105.824
99.3226
93.3806
87.9416
82.9561
78.3786
74.1682
70.2888
66.7107
63.4219
60.6116
345.062
334.1
321.785
308.119
293.271
277.512
261.19
244.693
228.4
212.628
197.613
183.506
170.381
158.251
147.096
136.879
127.542
119.018
111.241
104.142
97.6603
91.736
86.3147
81.3471
76.7886
72.5982
68.7401
65.1837
61.9112
59.07
344.928
333.445
320.381
305.876
290.263
273.929
257.26
240.623
224.34
208.672
193.811
179.874
166.92
154.95
143.943
133.859
124.642
116.227
108.549
101.541
95.1417
89.2948
83.9458
79.0465
74.5528
70.4244
66.6257
63.1257
59.9021
57.0391
344.788
332.601
318.463
302.755
286.045
268.865
251.65
234.738
218.393
202.813
188.129
174.42
161.712
149.99
139.228
129.376
120.376
112.162
104.67
97.8347
91.5958
85.8972
80.6861
75.9152
71.5416
67.5256
63.8327
60.4314
57.299
54.4267
344.64
331.408
315.632
298.161
279.916
261.597
243.662
226.396
209.98
194.527
180.098
166.716
154.366
143.018
132.624
123.128
114.463
106.564
99.3647
92.801
86.8139
81.3486
76.3536
71.7832
67.5958
63.7528
60.2217
56.9691
53.9837
51.1191
344.478
329.505
311.053
290.943
270.609
250.874
232.136
214.552
198.173
182.994
168.988
156.108
144.302
133.507
123.656
114.679
106.505
99.0648
92.2921
86.1241
80.5033
75.3763
70.6941
66.4128
62.493
58.8973
55.5974
52.5527
49.7893
46.9583
344.281
325.945
302.766
278.682
255.665
234.405
215.022
197.403
181.388
166.823
153.571
141.516
130.553
120.588
111.535
103.312
95.8447
89.0614
82.897
77.2907
72.1877
67.5378
63.2953
59.4188
55.8732
52.6209
49.6444
46.8793
44.4431
41.691
343.889
317.627
285.502
255.749
229.868
207.617
188.35