/*--------------------------------*- C++ -*----------------------------------*\
  =========                 |
  \\      /  F ield         | OpenFOAM: The Open Source CFD Toolbox
   \\    /   O peration     | Website:  https://openfoam.org
    \\  /    A nd           | Version:  10
     \\/     M anipulation  |
\*---------------------------------------------------------------------------*/
FoamFile
{
    format      ascii;
    class       volScalarField;
    location    "600";
    object      nut;
}
// * * * * * * * * * * * * * * * * * * * * * * * * * * * * * * * * * * * * * //

dimensions      [0 2 -1 0 0 0 0];

internalField   nonuniform List<scalar> 
27507
(
624.521
315.435
131.588
40.005
8.08486
15.1768
22.846
31.8002
41.4551
51.0949
60.1695
68.3437
75.4673
82.3697
88.8037
92.1508
94.7312
96.6806
98.0819
99.0136
99.5483
99.7528
99.6985
99.5097
99.8905
625.906
381.038
159.384
53.5395
7.36625
16.1841
25.9225
35.9777
45.894
55.3012
63.9127
71.5525
78.1467
84.9231
91.3383
94.203
96.3986
98.012
99.1245
99.8108
100.139
100.169
99.9696
99.6586
99.9404
627.517
511.053
230.961
87.1203
0.225846
10.9098
23.7086
36.0111
47.0823
56.8665
65.4357
72.8638
79.2198
84.5697
90.3842
95.947
97.9553
99.4117
100.392
100.967
101.199
101.145
100.855
100.386
99.8481
99.9449
630.019
542.275
345.635
166.948
57.887
0.401353
0.418533
15.145
29.6616
43.1072
54.9148
64.8726
73.1064
79.8643
85.39
89.8825
93.4967
97.7137
101.78
102.657
103.14
103.291
103.164
102.803
102.25
101.539
100.716
99.8777
99.7272
633.12
555.858
448.72
308.791
172.969
72.1442
40.1368
52.0239
61.0621
70.245
78.5808
85.6723
91.4121
95.8882
99.2849
101.801
103.611
104.86
105.656
107.76
107.393
106.81
106.055
105.158
104.146
103.043
101.869
100.656
99.481
99.0499
635.76
567.769
480.15
374.796
273.074
182.693
135.162
133.964
127.738
124.922
123.491
122.596
121.799
120.907
119.859
118.655
117.324
115.904
114.462
112.86
111.254
109.63
107.994
106.353
104.713
103.079
101.456
99.8622
98.355
97.6391
637.08
574.518
499.294
415.322
333.271
266.295
219.99
189.53
172.151
160.472
152.152
145.793
140.556
136.034
132.002
128.327
124.934
121.772
118.824
116.018
113.367
110.858
108.47
106.191
104.01
101.918
99.9087
97.9877
96.1872
95.2094
636.4
573.988
504.297
432.352
363.939
305.377
260.004
226.519
202.936
185.668
172.437
161.735
153.072
145.73
139.375
133.782
128.793
124.305
120.234
116.501
113.064
109.883
106.928
104.169
101.585
99.1541
96.861
94.7029
92.6787
91.4839
632.898
564.096
493.707
427.285
367.575
316.471
274.865
242.038
216.707
196.948
181.269
168.433
157.6
148.577
140.82
134.056
128.089
122.776
118.01
113.701
109.783
106.201
102.91
99.8732
97.059
94.4411
91.995
89.7163
87.5614
86.2113
625.106
541.627
465.38
400.926
347.318
302.941
266.542
236.962
213.091
193.728
177.881
164.778
153.435
143.862
135.684
128.544
122.256
116.675
111.688
107.203
103.145
99.4555
96.0845
92.9915
90.1406
87.5049
85.0526
82.7875
80.6115
79.1797
609.946
501.353
416.384
353.477
305.982
268.806
238.829
214.262
193.971
177.061
162.92
150.971
140.506
131.584
123.875
117.112
111.139
105.828
101.079
96.8094
92.9506
89.4474
86.2519
83.3265
80.635
78.1556
75.8476
73.7379
71.6608
70.2284
580.264
435.356
344.323
286.764
247.614
218.86
196.281
177.835
162.417
149.259
138.089
128.263
119.763
112.347
105.83
100.067
94.943
90.3646
86.2548
82.5491
79.1933
76.1431
73.3574
70.8079
68.4583
66.3014
64.279
62.4626
60.61
59.2622
518.334
334.9
250.713
206.061
178.507
159.407
144.627
132.596
122.458
113.489
105.722
98.8498
92.7456
87.3157
82.4707
78.1341
74.2406
70.7341
67.566
64.6948
62.0829
59.7016
57.5181
55.5191
53.6647
51.9748
50.3593
48.9541
47.4549
46.2777
383.652
202.105
147.166
122.175
107.616
97.9425
90.1876
83.9212
78.4826
73.5798
69.163
65.1619
61.5336
58.2371
55.2394
52.5144
50.0369
47.783
45.7292
43.8548
42.1382
40.5667
39.1145
37.7874
36.5365
35.4175
34.3052
33.3797
32.3702
31.4416
151.873
75.0679
58.1213
50.5018
45.8623
42.7677
40.2081
37.984
35.9741
34.112
32.3806
30.7694
29.2785
27.8856
26.5851
25.3818
24.2733
23.2542
22.3168
21.4547
20.6581
19.9259
19.2404
18.6178
18.0147
17.4893
16.948
16.48
16.0901
15.4563
12.4958
9.27997
7.62842
6.70065
6.10474
5.683
5.35396
5.07869
4.83703
4.61778
4.41518
4.22617
4.04903
3.88313
3.72755
3.58143
3.44421
3.31545
3.19471
3.08147
2.9754
2.87568
2.78268
2.69401
2.61355
2.53191
2.46677
2.38197
2.35015
2.22882
625.896
381.186
159.542
54.1458
7.03174
15.9715
25.8053
35.9119
45.8549
55.2769
63.8969
71.5418
78.1394
84.9173
91.3322
94.1983
96.3948
98.0091
99.1221
99.8089
100.137
100.168
99.9684
99.6576
99.9396
626.945
443.744
188.725
64.8689
7.90558
18.4519
29.5256
40.2079
50.1943
59.3222
67.482
74.6167
80.7148
87.3566
93.7552
96.1703
97.9845
99.2723
100.108
100.56
100.691
100.557
100.218
99.7899
99.9766
628.518
536.556
261.326
104.7
1.99106
1.08589
14.4703
28.0101
40.4633
51.435
60.9428
69.1142
76.0892
81.9821
86.8918
92.5807
98.125
99.7241
100.833
101.519
101.843
101.864
101.631
101.19
100.594
99.9491
99.9579
631.006
546.531
398.058
190.05
79.3455
1.74026
2.51574
21.0465
35.432
48.4108
59.6725
69.0994
76.8298
83.1095
88.1841
92.2583
95.4926
99.6028
103.628
104.157
104.345
104.244
103.901
103.358
102.649
101.807
100.873
99.9394
99.7106
633.928
559.409
458.632
335.584
193.287
89.5562
53.0327
63.6763
69.9518
77.5682
84.7163
90.8415
95.7843
99.595
102.427
104.457
105.845
106.726
107.202
109.252
108.604
107.78
106.817
105.743
104.58
103.347
102.064
100.756
99.5003
99.0015
636.326
570.172
485.974
385.978
287.679
196.984
147.968
146.06
137.093
132.461
129.66
127.702
126.049
124.456
122.827
121.137
119.394
117.622
115.875
114.013
112.185
110.371
108.571
106.789
105.029
103.291
101.579
99.9081
98.3342
97.5616
637.435
575.984
502.609
421.35
341.722
276.124
229.49
197.947
179.022
166.245
156.79
149.642
143.754
138.698
134.223
130.179
126.472
123.044
119.868
116.867
114.049
111.395
108.882
106.495
104.22
102.047
99.9683
97.987
96.1334
95.1092
636.598
574.793
506.052
435.449
368.397
310.72
265.484
231.677
207.424
189.477
175.677
164.411
155.311
147.602
140.94
135.087
129.879
125.202
120.967
117.093
113.534
110.248
107.2
104.362
101.708
99.217
96.8712
94.6672
92.6019
91.3701
632.993
564.474
494.526
428.731
369.69
319.105
277.721
244.872
219.314
199.253
183.258
170.166
159.053
149.801
141.851
134.919
128.806
123.368
118.492
114.087
110.085
106.43
103.074
99.9813
97.1174
94.4558
91.9713
89.6589
87.4734
86.0943
625.138
541.753
465.661
401.45
348.155
304.06
267.842
238.331
214.422
194.96
178.985
165.753
154.298
144.592
136.307
129.07
122.696
117.038
111.982
107.436
103.324
99.5859
96.172
93.0407
90.1558
87.4897
85.0105
82.7216
80.5235
79.0695
609.946
501.352
416.402
353.559
306.176
269.13
239.27
214.784
194.527
177.615
163.444
151.457
140.948
131.971
124.212
117.402
111.383
106.03
101.242
96.9367
93.0454
89.5125
86.2899
83.34
80.6263
78.1267
75.8005
73.6746
71.5823
70.1333
580.252
435.31
344.248
286.684
247.557
218.852
196.331
177.944
162.567
149.438
138.28
128.455
119.951
112.522
105.988
100.206
95.062
90.4639
86.3348
82.6105
79.2369
76.1698
73.3683
70.8041
68.4407
66.2712
64.237
62.4101
60.5476
59.1878
518.322
334.855
250.635
205.96
178.397
159.307
144.55
132.554
122.439
113.498
105.756
98.8963
92.8004
87.3735
82.5278
78.1877
74.2886
70.7752
67.5994
64.7199
62.0995
59.7096
57.5177
55.5106
53.6483
51.9511
50.3285
48.917
47.4115
46.2266
383.646
202.08
147.119
122.11
107.537
97.8611
90.1087
83.856
78.4317
73.5445
69.1432
65.154
61.5346
58.2447
55.2512
52.5283
50.0512
47.7963
45.7404
43.8633
42.1433
40.5682
39.1121
37.7812
36.5264
35.4038
34.2872
33.3594
32.3444
31.4146
151.872
75.0614
58.1063
50.4792
45.8316
42.7331
40.1724
37.951
35.9455
34.0888
32.3629
30.7569
29.2698
27.8814
26.5842
25.3833
24.2762
23.2577
22.3203
21.4578
20.6603
19.927
19.2403
18.6165
18.0117
17.4854
16.9417
16.4749
16.0766
15.4512
12.4958
9.27981
7.62778
6.69937
6.10276
5.68045
5.351
5.07557
4.83395
4.61489
4.41259
4.22392
4.04713
3.88152
3.72622
3.58033
3.44331
3.3147
3.19406
3.08089
2.97485
2.87513
2.78212
2.69341
2.61289
2.53121
2.46587
2.38148
2.34826
2.22912
627.503
511.163
231.329
88.921
0.216148
10.5593
23.4525
35.8199
46.9461
56.772
65.3703
72.8177
79.1868
84.5458
90.3652
95.9313
97.9428
99.4017
100.384
100.96
101.194
101.14
100.851
100.383
99.8454
99.9425
628.512
536.545
261.595
104.982
1.14191
1.07202
14.5292
27.9285
40.362
51.3531
60.8828
69.0714
76.0585
81.9598
86.8755
92.568
98.1152
99.7163
100.827
101.513
101.839
101.86
101.628
101.188
100.592
99.9474
99.9564
630.425
545.178
342.404
156.821
45.9624
12.3311
26.9807
40.5025
52.4229
62.5735
71.0604
78.0928
83.8897
88.636
92.4785
97.2933
102.038
102.898
103.371
103.514
103.377
103.008
102.446
101.727
100.896
100.051
99.8956
632.766
554.185
443.448
268.513
141.281
41.4681
18.6388
25.6419
38.7473
51.1592
62.2726
71.8144
79.6966
86.0366
91.0524
94.9756
98.0075
100.309
103.649
106.941
106.84
106.485
105.919
105.18
104.3
103.305
102.22
101.08
99.9699
99.5944
635.31
565.273
472.351
355.685
233.453
142.725
100.55
89.7792
90.3483
94.1896
98.4797
102.338
105.437
107.723
109.275
110.216
110.668
110.74
110.515
111.921
110.758
109.489
108.144
106.743
105.3
103.829
102.341
100.86
99.4539
98.8284
637.284
574.175
495.133
402.943
312.454
239.015
193.293
168.436
155.025
146.383
141.106
137.156
133.89
130.979
128.259
125.658
123.145
120.718
118.405
116.063
113.825
111.66
109.558
107.517
105.533
103.603
101.726
99.914
98.2163
97.3375
638.027
578.428
508.063
431.182
356.012
291.918
244.877
212.838
191.577
176.68
165.315
156.696
149.597
143.55
138.253
133.522
129.235
125.315
121.718
118.357
115.23
112.309
109.565
106.978
104.532
102.21
100.003
97.9103
95.9582
94.8473
636.919
576.107
508.943
440.593
375.941
319.7
274.801
240.729
215.445
196.328
181.451
169.301
159.351
150.97
143.745
137.415
131.804
126.778
122.243
118.11
114.326
110.846
107.63
104.645
101.863
99.2614
96.819
94.5309
92.3898
91.0888
633.132
565.048
495.816
431.079
373.214
323.542
282.597
249.791
223.89
203.324
186.772
173.237
161.644
151.958
143.662
136.427
130.051
124.382
119.307
114.727
110.572
106.783
103.31
100.113
97.1589
94.4177
91.8631
89.4893
87.2474
85.8144
625.17
541.894
466.031
402.219
349.46
305.87
269.996
240.638
216.692
197.076
180.887
167.434
155.785
145.847
137.369
129.96
123.43
117.634
112.456
107.799
103.589
99.7642
96.2726
93.0721
90.1256
87.4048
84.8766
82.5446
80.3062
78.811
609.926
501.288
416.339
353.585
306.384
269.568
239.922
215.593
195.413
178.512
164.298
152.252
141.673
132.606
124.76
117.865
111.767
106.34
101.484
97.1152
93.1659
89.5801
86.3093
83.3155
80.5619
78.0264
75.6674
73.5124
71.3926
69.9129
580.217
435.187
344.053
286.461
247.365
218.741
196.324
178.044
162.748
149.68
138.545
128.732
120.229
112.779
106.218
100.406
95.2296
90.5983
86.4361
82.6795
79.275
76.1785
73.3492
70.7589
68.3713
66.1794
64.1242
62.2788
60.3981
59.0168
518.294
334.754
250.464
205.736
178.149
159.071
144.351
132.416
122.344
113.456
105.765
98.9307
92.8536
87.4355
82.5915
78.2477
74.3409
70.8169
67.6286
64.7353
62.1006
59.6961
57.4897
55.4685
53.5924
51.8824
50.247
48.825
47.3069
46.1106
383.634
202.03
147.026
121.976
107.374
97.6891
89.9375
83.7073
78.308
73.4497
69.0775
65.1113
61.5097
58.2333
55.249
52.5314
50.0563
47.8007
45.7421
43.8608
42.1355
40.5544
39.0918
37.7544
36.4926
35.3638
34.2398
33.309
32.2782
31.3577
151.871
75.0492
58.0779
50.4354
45.7714
42.6639
40.0998
37.8817
35.8833
34.0359
32.3202
30.7237
29.2438
27.8637
26.5731
25.3768
24.2727
23.2558
22.3187
21.4557
20.657
19.9222
19.2334
18.6074
18.0001
17.4719
16.9238
16.4636
16.0216
15.4668
12.4958
9.27956
7.62663
6.69702
6.09904
5.67554
5.34521
5.06932
4.82763
4.60882
4.40698
4.2189
4.04271
3.87764
3.72283
3.57739
3.44074
3.31242
3.19201
3.07898
2.97303
2.87335
2.78033
2.69159
2.61091
2.52952
2.46245
2.38449
2.32485
2.24753
629.999
542.15
347.737
166.338
55.8279
0.178902
14.983
29.4737
42.8958
54.7154
64.7063
72.9769
79.7664
85.3166
89.8272
93.4547
97.681
101.754
102.635
103.123
103.277
103.152
102.794
102.242
101.533
100.711
99.8727
99.7229
630.99
546.443
398.813
191.406
79.4834
1.7223
1.74868
20.971
35.3165
48.2661
59.5238
68.97
76.7268
83.0305
88.1242
92.2128
95.4577
99.5762
103.607
104.141
104.331
104.233
103.892
103.35
102.643
101.802
100.868
99.9354
99.7071
632.758
554.15
443.381
268.692
141.463
40.9459
18.597
25.5379
38.6343
51.0742
62.1987
71.7433
79.6336
85.9849
91.0117
94.944
97.9831
100.291
103.634
106.93
106.831
106.478
105.913
105.175
104.295
103.301
102.217
101.077
99.9676
99.5924
634.871
563.198
466.464
343.417
213.312
122.249
70.0569
63.7666
69.3337
76.8283
84.0696
90.3705
95.5094
99.5044
102.491
104.643
106.122
107.066
109.088
111.067
110.143
109.078
107.904
106.646
105.324
103.953
102.55
101.138
99.7948
99.223
636.928
572.156
488.872
389.018
290.892
197.043
148.656
127.757
120.297
118.397
118.328
118.738
119.062
119.081
118.755
118.119
117.233
116.163
114.955
115.214
113.374
111.522
109.676
107.845
106.035
104.251
102.497
100.787
99.182
98.3868
638.373
578.767
505.762
422.94
341.054
272.981
225.454
195.754
177.344
164.96
156.122
149.512
144.086
139.405
135.224
131.405
127.87
124.575
121.515
118.543
115.769
113.143
110.646
108.265
105.989
103.807
101.715
99.7179
97.857
96.8359
638.666
581.119
514.206
442.448
372.543
311.844
264.939
231.177
207.251
189.781
176.387
165.699
157.049
149.706
143.332
137.696
132.648
128.084
123.935
120.103
116.573
113.303
110.259
107.412
104.741
102.226
99.8517
97.615
95.5335
94.3065
637.227
577.431
512.009
446.269
384.497
330.376
286.167
251.689
225.261
204.794
188.618
175.428
164.376
155.137
147.187
140.245
134.107
128.63
123.706
119.237
115.164
111.433
107.999
104.825
101.879
99.1336
96.5667
94.1703
91.9305
90.5371
633.222
565.483
496.968
433.422
376.986
328.515
288.228
255.534
229.299
208.181
191.002
176.874
164.777
154.526
145.794
138.174
131.464
125.504
120.173
115.371
111.021
107.061
103.439
100.111
97.0407
94.1981
91.5543
89.1026
86.7881
85.2832
625.14
541.838
466.123
402.718
350.573
307.631
272.235
243.122
219.192
199.439
183.026
169.315
157.455
147.243
138.532
130.911
124.191
118.224
112.893
108.1
103.768
99.8342
96.2455
92.9585
89.9349
87.1454
84.5561
82.1702
79.8806
78.3307
609.847
501.033
415.99
353.282
306.27
269.732
240.366
216.262
196.212
179.362
165.126
153.024
142.382
133.222
125.278
118.287
112.097
106.582
101.645
97.2004
93.1814
89.5314
86.202
83.1547
80.3524
77.7728
75.3736
73.183
71.0288
69.5085
580.138
434.922
343.639
285.967
246.877
218.338
196.052
177.917
162.735
149.764
138.671
128.893
120.409
112.947
106.364
100.522
95.3125
90.6457
86.4471
82.6543
79.2142
76.0835
73.2216
70.6006
68.1841
65.9654
63.8851
62.0172
60.115
58.7046
518.241
334.575
250.165
205.343
177.702
158.623
143.94
132.082
122.065
113.254
105.634
98.8413
92.7982
87.4005
82.5667
78.225
74.3144
70.7821
67.5822
64.6751
62.0252
59.6048
57.3821
55.3448
53.4529
51.7278
50.0776
48.6422
47.1119
45.8962
383.614
201.95
146.878
121.765
107.11
97.4032
89.6447
83.4378
78.0685
73.2486
68.9158
64.9825
61.4078
58.153
55.1846
52.4775
50.0083
47.7549
45.6954
43.8109
42.0807
40.4936
39.0241
37.6794
36.4099
35.2737
34.142
33.2037
32.1677
31.2354
151.869
75.0314
58.0359
50.3701
45.6802
42.5566
39.9842
37.7677
35.7766
33.9405
32.2377
30.6539
29.1843
27.8159
26.5348
25.3458
24.2467
23.2329
22.2973
21.4345
20.6351
19.8987
19.2078
18.5796
17.9696
17.4386
16.888
16.4239
15.9819
15.4211
12.4958
9.27921
7.62499
6.69362
6.09358
5.6682
5.33637
5.05956
4.81751
4.59881
4.39743
4.21001
4.03458
3.87019
3.71606
3.57123
3.43512
3.30725
3.18718
3.07442
2.96865
2.86907
2.77611
2.68734
2.60667
2.52506
2.45821
2.37942
2.32073
2.24199
633.118
555.918
449.497
320.717
172.016
70.5237
39.0959
51.4037
60.7005
69.9752
78.3446
85.4653
91.2372
95.7456
99.1713
101.712
103.541
104.804
105.612
107.726
107.364
106.786
106.035
105.142
104.133
103.031
101.86
100.647
99.4737
99.0435
633.916
559.342
458.23
334.76
193.164
88.8505
52.6935
62.8932
69.61
77.3277
84.5148
90.6669
95.6365
99.4738
102.33
104.38
105.784
106.677
107.163
109.222
108.579
107.759
106.8
105.729
104.568
103.337
102.055
100.748
99.494
98.9959
635.3
565.223
472.195
355.496
233.376
142.522
100.364
89.5135
90.1229
94.0172
98.3407
102.221
105.338
107.642
109.209
110.163
110.625
110.706
110.488
111.901
110.74
109.475
108.132
106.733
105.291
103.821
102.335
100.854
99.4493
98.8243
636.923
572.135
488.817
388.942
290.827
196.962
148.54
127.637
120.195
118.315
118.262
118.683
119.016
119.043
118.724
118.093
117.212
116.146
114.942
115.204
113.365
111.514
109.67
107.84
106.031
104.247
102.494
100.784
99.1796
98.3847
638.396
578.53
504.28
419.003
334.682
253.066
200.579
171.152
155.615
146.898
141.55
137.741
134.676
131.945
129.361
126.852
124.395
121.997
119.662
118.428
115.839
113.34
110.942
108.639
106.428
104.301
102.254
100.293
98.4674
97.4796
639.279
582.732
515.273
441.054
367.922
304.888
257.137
223.875
200.996
184.771
172.416
162.81
154.981
148.323
142.508
137.33
132.656
128.399
124.514
120.85
117.488
114.358
111.428
108.675
106.079
103.625
101.299
99.0999
97.0586
95.8762
639.11
583.152
519.269
452.263
387.548
330.498
284.452
249.41
223.186
203.288
187.762
175.133
164.738
155.994
148.448
141.83
135.955
130.689
125.939
121.598
117.63
113.982
110.613
107.486
104.574
101.851
99.2967
96.905
94.6821
93.324
637.34
578.102
514.054
450.671
391.715
339.894
296.728
262.109
234.777
213.109
195.688
181.455
169.345
159.173
150.467
142.873
136.177
130.22
124.881
120.057
115.676
111.679
108.014
104.639
101.519
98.6228
95.9244
93.4141
91.0679
89.5707
633.13
565.31
497.169
434.611
379.559
332.394
292.937
260.527
234.124
212.576
194.853
180.164
167.605
156.801
147.625
139.617
132.565
126.306
120.714
115.682
111.132
106.995
103.218
99.7551
96.566
93.6191
90.8837
88.3521
85.961
84.3759
624.951
541.261
465.415
402.246
350.649
308.379
273.561
244.808
221.01
201.221
184.662
170.744
158.711
148.262
139.335
131.514
124.613
118.481
113
108.073
103.622
99.5805
95.8958
92.5231
89.423
86.5655
83.9154
81.4764
79.1345
77.5239
609.644
500.383
415.041
352.247
305.358
269.09
240.042
216.222
196.374
179.645
165.448
153.336
142.671
133.457
125.44
118.373
112.105
106.516
101.506
96.9935
92.9108
89.2017
85.8175
82.7201
79.8718
77.2505
74.8131
72.589
70.4013
68.836
579.977
434.404
342.843
284.996
245.853
217.373
195.218
177.251
162.218
149.389
138.37
128.667
120.232
112.788
106.206
100.355
95.1277
90.4382
86.2138
82.3934
78.9249
75.7659
72.8762
70.2285
67.7864
65.5438
63.4406
61.5524
59.6309
58.1876
518.147
334.272
249.674
204.698
176.955
157.842
143.182
131.403
121.448
112.74
105.198
98.4743
92.4862
87.1285
82.3218
77.9969
74.0947
70.5644
67.3615
64.4478
61.7885
59.3571
57.1222
55.0723
53.1673
51.4295
49.7666
48.3185
46.7809
45.5396
383.583
201.833
146.662
121.455
106.717
96.9643
89.1826
82.9909
77.6502
72.8745
68.587
64.696
61.158
57.9346
54.9912
52.3029
49.8468
47.6017
45.5466
43.6633
41.9319
40.3418
38.8678
37.518
36.2426
35.1001
33.9631
33.0144
31.9865
31.0226
151.867
75.0079
57.9798
50.281
45.5537
42.404
39.8156
37.5953
35.6087
33.7835
32.0946
30.5255
29.0685
27.7147
26.4463
25.2675
24.1761
23.1676
22.2355
21.3747
20.5758
19.8393
19.1472
18.5175
17.9056
17.3718
16.8216
16.3442
15.9461
15.3041
12.4958
9.27877
7.62291
6.6892
6.08632
5.65823
5.32407
5.04563
4.80267
4.58369
4.38254
4.19567
4.02098
3.85734
3.70399
3.55992
3.4245
3.29724
3.17768
3.06533
2.95989
2.86054
2.76776
2.67905
2.59856
2.51652
2.4513
2.36582
2.33363
2.21198
635.758
567.785
480.288
374.619
272.221
181.713
134.377
133.449
127.36
124.626
123.252
122.398
121.635
120.772
119.748
118.564
117.25
115.844
114.413
112.819
111.22
109.602
107.97
106.333
104.696
103.065
101.444
99.8515
98.3456
97.6309
636.317
570.127
485.795
385.255
287.168
196.37
147.415
145.707
136.77
132.203
129.452
127.531
125.907
124.339
122.731
121.058
119.329
117.569
115.831
113.977
112.155
110.346
108.55
106.771
105.014
103.278
101.568
99.8985
98.3258
97.5541
637.274
574.13
495.001
402.656
312.188
238.737
193.026
168.185
154.8
146.195
140.953
137.03
133.785
130.891
128.187
125.598
123.096
120.677
118.371
116.034
113.801
111.64
109.541
107.503
105.521
103.592
101.717
99.9062
98.2095
97.3315
638.367
578.74
505.693
422.817
340.923
272.833
225.3
195.607
177.214
164.847
156.029
149.435
144.021
139.351
135.179
131.367
127.838
124.549
121.493
118.524
115.753
113.13
110.635
108.256
105.98
103.8
101.709
99.7126
97.8524
96.8317
639.276
582.721
515.248
441.011
367.872
304.83
257.074
223.814
200.942
184.724
172.376
162.777
154.953
148.299
142.488
137.313
132.642
128.387
124.504
120.842
117.481
114.352
111.423
108.67
106.075
103.621
101.296
99.0973
97.0563
95.8742
639.645
584.764
521.221
453.625
387.801
329.731
283.102
247.953
221.893
202.288
187.066
174.7
164.589
156.06
148.689
142.215
136.456
131.283
126.608
122.316
118.392
114.782
111.443
108.339
105.444
102.733
100.188
97.8014
95.5872
94.2431
639.07
583.5
521.432
457.999
397.644
344.071
299.502
264.064
236.368
214.617
197.248
183.107
171.107
161.084
152.464
144.941
138.3
132.384
127.075
122.265
117.892
113.897
110.228
106.844
103.71
100.797
98.0794
95.5472
93.1918
91.7033
637.025
577.315
513.709
451.946
395.324
345.695
303.853
269.565
241.829
219.379
201.043
185.919
173.061
162.038
152.671
144.505
137.316
130.934
125.227
120.088
115.435
111.202
107.333
103.781
100.507
97.478
94.6647
92.0554
89.6127
88.0134
632.668
563.907
495.424
433.34
379.389
333.485
295.018
263.145
236.868
215.169
197.139
182.063
169.197
157.981
148.448
140.129
132.8
126.297
120.488
115.268
110.551
106.269
102.363
98.7869
95.499
92.4659
89.6549
87.0584
84.6012
82.9382
624.458
539.7
463.198
399.924
348.693
307.046
272.872
244.628
221.145
201.502
184.964
170.977
158.878
148.307
139.245
131.293
124.267
118.02
112.433
107.409
102.868
98.7473
94.9906
91.5532
88.3953
85.4866
82.7905
80.3124
77.9283
76.2598
609.213
499.015
413.023
349.923
303.038
266.997
238.286
214.818
195.264
178.765
164.712
152.679
142.072
132.89
124.863
117.774
111.476
105.853
100.806
96.2566
92.1369
88.3921
84.9739
81.8445
78.9663
76.3178
73.8547
71.6092
69.3972
67.7896
579.666
433.442
341.398
283.238
243.951
215.481
193.448
175.668
160.823
148.193
137.298
127.733
119.393
112.021
105.487
99.6654
94.4558
89.7743
85.5507
81.7261
78.2498
75.0805
72.179
69.5188
67.0635
64.8084
62.6922
60.7931
58.8603
57.3863
517.979
333.763
248.876
203.663
175.751
156.557
141.893
130.187
120.297
111.715
104.272
97.6455
91.7405
86.4516
81.6991
77.4156
73.5439
70.0353
66.847
63.9422
61.2874
58.8572
56.6209
54.5679
52.6583
50.9156
49.2468
47.7925
46.253
44.989
383.532
201.657
146.346
121.002
106.142
96.3097
88.4809
82.2881
76.9695
72.2397
68.0029
64.164
60.6739
57.4941
54.5881
51.9304
49.4986
47.272
45.2305
43.3568
41.6316
40.0452
38.5727
37.2232
35.9465
34.8021
33.6634
32.7087
31.6884
30.7041
151.864
74.9773
57.9059
50.1619
45.3821
42.193
39.5772
37.3444
35.3565
33.5395
31.8637
30.3103
28.8684
27.5316
26.2792
25.1141
24.0339
23.0342
22.1087
21.2527
20.457
19.7226
19.0316
18.4023
17.7902
17.2555
16.7059
16.2232
15.8342
15.1791
12.4958
9.27826
7.62036
6.68363
6.07697
5.64508
5.30751
5.02644
4.7817
4.5618
4.3604
4.17378
3.9997
3.83677
3.68425
3.54105
3.40648
3.28
3.16116
3.04943
2.94453
2.84562
2.75322
2.66477
2.58456
2.50264
2.43757
2.3522
2.32051
2.19763
637.076
574.504
499.264
415.114
332.78
265.768
219.512
189.118
171.826
160.199
151.934
145.613
140.406
135.909
131.897
128.24
124.861
121.711
118.773
115.976
113.332
110.827
108.444
106.169
103.991
101.902
99.8945
97.9754
96.1763
95.1998
637.427
575.948
502.501
421.037
341.348
275.726
229.125
197.622
178.743
166.007
156.597
149.481
143.62
138.586
134.129
130.1
126.406
122.989
119.822
116.828
114.017
111.367
108.858
106.474
104.203
102.032
99.9553
97.9757
96.1234
95.1003
638.019
578.392
507.969
430.982
355.776
291.66
244.624
212.603
191.368
176.502
165.164
156.57
149.492
143.461
138.179
133.459
129.182
125.271
121.68
118.325
115.203
112.286
109.545
106.962
104.517
102.198
99.9918
97.9007
95.9497
94.8397
638.66
581.093
514.145
442.338
372.409
311.692
264.782
231.027
207.116
189.663
176.284
165.613
156.976
149.644
143.279
137.651
132.61
128.052
123.907
120.08
116.553
113.286
110.244
107.4
104.73
102.217
99.8434
97.6077
95.5271
94.3007
639.106
583.138
519.238
452.21
387.482
330.42
284.371
249.33
223.112
203.222
187.705
175.083
164.695
155.958
148.417
141.804
135.932
130.67
125.923
121.584
117.617
113.972
110.603
107.478
104.567
101.845
99.2914
96.9003
94.6779
93.3202
639.069
583.495
521.421
457.981
397.62
344.043
299.472
264.034
236.339
214.592
197.225
183.087
171.09
161.069
152.451
144.93
138.29
132.375
127.068
122.259
117.887
113.892
110.224
106.84
103.707
100.794
98.0769
95.545
93.1898
91.7015
638.191
580.978
518.844
457.368
400.24
349.785
307.153
272.263
244.121
221.412
202.913
187.679
174.746
163.678
154.263
146.061
138.84
132.428
126.693
121.526
116.845
112.585
108.689
105.111
101.812
98.7576
95.9204
93.2872
90.8291
89.2264
635.967
574.044
509.419
448.208
393.271
345.628
305.361
271.946
244.457
221.839
203.116
187.502
174.254
162.703
152.885
144.343
136.823
130.151
124.193
118.837
113.997
109.601
105.592
101.92
98.5424
95.4253
92.5366
89.8646
87.3531
85.6666
631.565
560.406
490.462
428.136
374.898
330.168
292.856
261.855
236.11
214.665
196.696
181.554
168.617
157.253
147.537
139.071
131.601
124.967
119.04
113.713
108.903
104.538
100.561
96.9215
93.579
90.4991
87.6476
85.0187
82.5204
80.793
623.435
536.453
458.479
394.634
343.554
302.496
269.064
241.519
218.595
199.359
183.09
169.26
157.263
146.759
137.706
129.749
122.706
116.435
110.82
105.768
101.2
97.0523
93.2707
89.8107
86.6324
83.7059
80.9937
78.5044
76.1003
74.3854
608.376
496.411
409.228
345.524
298.51
262.673
234.351
211.336
192.212
176.092
162.34
150.509
140.098
131.071
123.137
116.117
109.87
104.282
99.2603
94.7271
90.6181
86.8798
83.465
80.3371
77.459
74.8103
72.3455
70.1014
67.8838
66.2434
579.089
431.711
338.874
280.218
240.687
212.187
190.28
172.725
158.127
145.775
135.074
125.733
117.566
110.341
103.922
98.1924
93.0551
88.4303
84.2512
80.461
77.0114
73.8627
70.9769
68.3288
65.8826
63.6351
61.5236
59.6308
57.7013
56.2043
517.679
332.896
247.57
202.008
173.846
154.52
139.828
128.191
118.376
109.945
102.635
96.1447
90.3626
85.1823
80.522
76.3154
72.5071
69.0501
65.9035
63.0322
60.404
57.995
55.7751
53.7354
51.8357
50.1015
48.4385
46.9895
45.4584
44.1779
383.447
201.383
145.871
120.332
105.296
95.3416
87.4367
81.2233
75.9187
71.2367
67.0578
63.2831
59.8559
56.7357
53.8834
51.2727
48.8808
46.6875
44.6733
42.8218
41.1142
39.5422
38.0807
36.7402
35.47
34.3313
33.1971
32.2432
31.235
30.2366
151.858
74.9356
57.8054
49.9989
45.1463
41.8998
39.242
36.9854
34.9886
33.1757
31.5116
29.9747
28.5505
27.2336
26.0011
24.8542
23.7898
22.8034
21.8889
21.0418
20.2533
19.5247
18.838
18.2125
17.6029
17.07
16.5232
16.0387
15.6566
14.997
12.4958
9.27765
7.61719
6.67652
6.06478
5.62763
5.28519
5.00016
4.7525
4.53077
4.32847
4.14167
3.96793
3.80565
3.65398
3.51177
3.37823
3.25279
3.13493
3.02411
2.92003
2.82184
2.73013
2.6422
2.56257
2.48096
2.41642
2.3312
2.30005
2.17703
636.394
573.965
504.24
432.197
363.656
305.047
259.679
226.223
202.685
185.455
172.254
161.584
152.944
145.621
139.283
133.704
128.727
124.248
120.186
116.46
113.028
109.853
106.902
104.147
101.565
99.137
96.8461
94.6898
92.667
91.4735
636.591
574.764
505.978
435.282
368.16
310.449
265.215
231.427
207.204
189.288
175.514
164.274
155.195
147.503
140.856
135.016
129.818
125.15
120.923
117.055
113.501
110.22
107.176
104.341
101.69
99.2011
96.8572
94.655
92.5911
91.3603
636.912
576.08
508.877
440.466
375.772
319.506
274.602
240.54
215.274
196.178
181.321
169.187
159.255
150.888
143.675
137.356
131.753
126.734
122.205
118.078
114.298
110.822
107.609
104.627
101.848
99.2477
96.8069
94.5202
92.3804
91.0802
637.221
577.409
511.962
446.187
384.389
330.25
286.035
251.56
225.142
204.688
188.525
175.345
164.305
155.076
147.135
140.2
134.069
128.597
123.677
119.212
115.142
111.414
107.983
104.811
101.866
99.1227
96.557
94.1617
91.9229
90.5302
637.336
578.089
514.026
450.624
391.653
339.822
296.65
262.032
234.704
213.042
195.628
181.402
169.299
159.133
150.432
142.842
136.15
130.197
124.861
120.039
115.661
111.666
108.003
104.629
101.51
98.6149
95.9174
93.4079
91.0623
89.5656
637.023
577.307
513.695
451.924
395.294
345.659
303.815
269.525
241.791
219.344
201.011
185.891
173.035
162.016
152.651
144.488
137.301
130.92
125.216
120.078
115.426
111.195
107.326
103.775
100.502
97.4732
94.6604
92.0516
89.6093
88.0103
635.967
574.041
509.414
448.2
393.261
345.615
305.347
271.932
244.443
221.826
203.103
187.491
174.244
162.694
152.877
144.336
136.817
130.146
124.188
118.833
113.993
109.598
105.589
101.917
98.54
95.4231
92.5346
89.8629
87.3515
85.6651
633.692
566.847
499.237
437.416
383.615
337.885
299.524
267.593
241.086
219.035
200.59
185.062
171.851
160.23
150.293
141.659
134.044
127.284
121.246
115.821
110.922
106.477
102.427
98.7209
95.3174
92.181
89.2778
86.5991
84.0634
82.317
629.381
553.5
480.549
417.199
364.404
320.897
285.023
255.326
230.616
209.931
192.495
177.714
165.017
153.837
144.231
135.835
128.414
121.814
115.911
110.603
105.808
101.456
97.4902
93.8626
90.5317
87.4645
84.6251
82.0128
79.5131
77.7453
621.493
530.392
449.799
384.881
333.842
293.471
261.003
234.453
212.421
193.927
178.248
164.871
153.205
143.015
134.177
126.387
119.476
113.312
107.784
102.803
98.2951
94.1987
90.4614
87.0403
83.8965
81.0021
78.3177
75.8588
73.4689
71.7281
606.818
491.684
402.539
337.924
290.73
255.173
227.387
205.009
186.52
170.986
157.742
146.288
136.263
127.536
119.842
113.018
106.932
101.477
96.5659
92.1255
88.0949
84.4233
81.0659
77.988
75.1533
72.5439
70.1124
67.9031
65.7084
64.0519
578.02
428.618
334.542
275.197
235.37
206.861
185.142
167.9
153.654
141.69
131.29
122.293
114.406
107.425
101.213
95.6571
90.6666
86.1655
82.0906
78.3886
75.0138
71.929
69.0979
66.4974
64.0921
61.8815
59.8004
57.9388
56.0348
54.5276
517.126
331.378
245.391
199.349
170.866
151.377
136.655
125.109
115.397
107.165
100.036
93.7379
88.1339
83.115
78.5976
74.5155
70.8147
67.4497
64.3816
61.5772
59.006
56.6458
54.4675
52.4642
50.5951
48.8889
47.2487
45.8212
44.3142
43.0265
383.294
200.927
145.116
119.302
104.027
93.9087
85.9003
79.6527
74.3601
69.7333