/*--------------------------------*- C++ -*----------------------------------*\
  =========                 |
  \\      /  F ield         | OpenFOAM: The Open Source CFD Toolbox
   \\    /   O peration     | Website:  https://openfoam.org
    \\  /    A nd           | Version:  10
     \\/     M anipulation  |
\*---------------------------------------------------------------------------*/
FoamFile
{
    format      ascii;
    class       volScalarField;
    location    "600";
    object      omega;
}
// * * * * * * * * * * * * * * * * * * * * * * * * * * * * * * * * * * * * * //

dimensions      [0 0 -1 0 0 0 0];

internalField   nonuniform List<scalar> 
27507
(
0.55875
0.694146
1.21388
7.73756
3.11721
3.08399
2.78294
2.40796
2.07154
1.79812
1.58282
1.41393
1.28029
1.15977
1.0529
0.988278
0.933472
0.886099
0.844767
0.808365
0.77601
0.747005
0.720792
0.696971
0.673918
0.557098
0.673916
1.06931
5.14357
4.25212
3.5988
2.91074
2.40124
2.03157
1.75753
1.5497
1.38877
1.26168
1.14422
1.03953
0.97817
0.925624
0.880092
0.840221
0.804966
0.773507
0.745204
0.719541
0.696155
0.67345
0.554909
0.650542
0.89398
2.52379
22.3534
5.94871
3.80224
2.81728
2.26037
1.90332
1.65465
1.47119
1.33013
1.21828
1.11186
1.01545
0.959741
0.911579
0.869459
0.832242
0.799054
0.76921
0.742172
0.717507
0.694913
0.672837
0.551797
0.632937
0.825563
1.44491
5.15763
72.583
59.3385
7.58677
4.32312
3.04926
2.38191
1.97674
1.70624
1.51285
1.36726
1.2532
1.16106
1.07027
0.985731
0.937183
0.89453
0.856669
0.822766
0.79217
0.764361
0.73893
0.715539
0.693965
0.672678
0.548188
0.613677
0.745058
1.05018
1.79839
3.85997
5.75025
4.01153
3.12939
2.52456
2.11354
1.82535
1.61576
1.45782
1.33477
1.23603
1.15471
1.08626
1.02751
0.956359
0.915057
0.878013
0.844528
0.814059
0.786176
0.76052
0.736797
0.71476
0.69428
0.673804
0.545108
0.597688
0.689781
0.855587
1.11976
1.5847
1.95411
1.77648
1.70624
1.60431
1.49964
1.4022
1.31519
1.23866
1.1715
1.11233
1.05984
1.0129
0.970407
0.932151
0.897249
0.865245
0.835747
0.808438
0.783054
0.759383
0.737245
0.716474
0.69703
0.677246
0.543299
0.588113
0.658193
0.76447
0.910613
1.07421
1.21153
1.299
1.31885
1.30538
1.27254
1.23047
1.18564
1.14095
1.09784
1.05693
1.01842
0.982315
0.948427
0.916723
0.887001
0.859076
0.832815
0.808086
0.784769
0.762747
0.741922
0.722183
0.703602
0.684256
0.543314
0.586459
0.647205
0.727524
0.826001
0.931469
1.02569
1.09585
1.13416
1.14763
1.14396
1.13017
1.10821
1.08227
1.05424
1.02534
0.996374
0.967792
0.939904
0.912929
0.886962
0.862044
0.838173
0.815337
0.793512
0.772656
0.75274
0.733682
0.7157
0.69641
0.545838
0.594664
0.656612
0.728854
0.80819
0.888445
0.961031
1.01904
1.05835
1.08038
1.08803
1.08546
1.07623
1.06039
1.04087
1.01903
0.995831
0.971952
0.947858
0.923891
0.900287
0.877208
0.854755
0.832994
0.811967
0.791681
0.772166
0.753321
0.73561
0.715844
0.552214
0.61706
0.691195
0.767402
0.841932
0.911565
0.972592
1.02182
1.05736
1.0797
1.09032
1.09108
1.0866
1.07565
1.05991
1.04134
1.02084
0.999116
0.97669
0.953966
0.931245
0.908748
0.886632
0.865008
0.843965
0.823525
0.803788
0.784548
0.766719
0.745745
0.565535
0.663642
0.764634
0.856011
0.934408
0.999945
1.05328
1.09454
1.12383
1.14212
1.15023
1.1499
1.14489
1.13365
1.11793
1.09932
1.07865
1.05659
1.03368
1.01033
0.986857
0.963503
0.940456
0.917834
0.895769
0.874247
0.853507
0.833026
0.814639
0.791399
0.594046
0.759283
0.910236
1.02847
1.11557
1.17818
1.223
1.25371
1.27258
1.28212
1.28226
1.27718
1.26589
1.24983
1.23024
1.20806
1.18405
1.15884
1.13291
1.10665
1.08038
1.05431
1.02866
1.0035
0.979055
0.955123
0.93233
0.909296
0.889849
0.862679
0.664504
0.975695
1.21559
1.36967
1.46127
1.51189
1.53956
1.55099
1.5506
1.54442
1.53036
1.51126
1.48816
1.46176
1.43291
1.40231
1.37056
1.33816
1.30553
1.27298
1.24081
1.20917
1.17831
1.14815
1.11917
1.09059
1.06415
1.0362
1.01505
0.981035
0.896587
1.57444
1.951
2.11822
2.17845
2.18024
2.16539
2.13387
2.09587
2.05548
2.01238
1.96732
1.92074
1.87326
1.82539
1.77744
1.72973
1.68254
1.63615
1.59075
1.54662
1.50372
1.46251
1.4223
1.38458
1.34659
1.3135
1.27559
1.25121
1.20466
2.25129
3.88437
4.19795
4.15082
4.01634
3.84884
3.69715
3.55846
3.43083
3.31225
3.20021
3.09329
2.99013
2.89174
2.79795
2.70777
2.62086
2.53714
2.45668
2.37943
2.30569
2.23488
2.16817
2.10306
2.04411
1.98267
1.93354
1.87221
1.83455
1.76532
25.3733
18.8433
15.4898
13.6059
12.3959
11.5395
10.8714
10.3125
9.82177
9.37657
8.9652
8.5814
8.2217
7.88483
7.56893
7.27222
6.9936
6.73215
6.48698
6.25705
6.04166
5.83917
5.65033
5.47033
5.30677
5.14165
5.00685
4.84459
4.74131
4.55685
0.557106
0.673956
1.071
5.32312
4.34777
3.62546
2.91816
2.40373
2.03258
1.75798
1.54993
1.3889
1.26175
1.14427
1.03957
0.978201
0.925646
0.880108
0.840233
0.804976
0.773514
0.745209
0.719546
0.696159
0.673453
0.555787
0.660247
0.975229
3.80491
5.29524
3.82789
2.92213
2.36029
1.98451
1.71719
1.51821
1.36509
1.24413
1.12963
1.02685
0.968481
0.918212
0.874449
0.835957
0.801778
0.771159
0.743515
0.718371
0.695398
0.673023
0.553697
0.642351
0.852436
2.20395
64.3171
16.4975
5.70294
3.63993
2.71509
2.19019
1.85279
1.61752
1.44368
1.30969
1.20306
1.09915
1.00427
0.951195
0.905042
0.864472
0.828463
0.796221
0.76712
0.740671
0.716472
0.694251
0.672475
0.55068
0.626921
0.797277
1.299
3.84976
54.85
26.9603
6.39961
3.93995
2.87112
2.28255
1.91453
1.66419
1.483
1.34541
1.23692
1.14879
1.05988
0.976578
0.930119
0.889083
0.852487
0.81958
0.789773
0.762591
0.737662
0.714672
0.693422
0.672396
0.547306
0.609078
0.727638
0.975599
1.61186
3.16155
4.55558
3.41683
2.82848
2.35463
2.00985
1.7581
1.5699
1.42526
1.31094
1.21817
1.14113
1.07582
1.01945
0.949195
0.909463
0.873658
0.841158
0.811478
0.784228
0.75908
0.735768
0.714065
0.693857
0.673601
0.544495
0.594701
0.680602
0.829267
1.06223
1.47286
1.79725
1.64652
1.60884
1.53179
1.44569
1.36171
1.28451
1.21516
1.15332
1.09814
1.0487
1.00411
0.96348
0.926682
0.892938
0.861861
0.833109
0.806404
0.781512
0.758243
0.736435
0.715934
0.696714
0.677108
0.542909
0.586302
0.653252
0.752655
0.887375
1.03636
1.16381
1.24867
1.27483
1.26755
1.24264
1.20638
1.16637
1.12555
1.08551
1.04703
1.01047
0.975936
0.943309
0.912624
0.883726
0.856478
0.830773
0.806503
0.783564
0.761854
0.741289
0.721764
0.703363
0.68416
0.543083
0.585421
0.644551
0.721764
0.815429
0.915259
1.0051
1.07307
1.1122
1.12783
1.12654
1.11562
1.09604
1.07219
1.04591
1.01848
0.990729
0.963164
0.936129
0.909863
0.884486
0.860058
0.836596
0.814102
0.792562
0.771945
0.75223
0.73334
0.715502
0.696325
0.545714
0.594109
0.655225
0.725954
0.803073
0.880745
0.951106
1.00769
1.04674
1.0693
1.07795
1.07634
1.0684
1.05371
1.03519
1.01424
0.991809
0.968593
0.945066
0.921584
0.898393
0.875664
0.853509
0.832
0.811187
0.791084
0.771723
0.753009
0.735412
0.715735
0.552156
0.616801
0.690541
0.766031
0.839449
0.907757
0.967546
1.01586
1.051
1.07335
1.08429
1.08551
1.08147
1.07119
1.056
1.03796
1.01793
0.99663
0.974578
0.952182
0.929747
0.907498
0.885598
0.86416
0.843277
0.822975
0.803357
0.784218
0.766481
0.745577
0.565514
0.663552
0.764396
0.85547
0.933349
0.998205
1.05082
1.09146
1.12035
1.13846
1.14659
1.14638
1.14155
1.13061
1.11518
1.09686
1.07647
1.05468
1.03201
1.00888
0.985601
0.962423
0.939532
0.917046
0.895102
0.873685
0.853038
0.832636
0.814323
0.79114
0.594044
0.759288
0.910241
1.02841
1.1153
1.17756
1.22196
1.25222
1.27075
1.28003
1.28004
1.27492
1.26362
1.24767
1.2282
1.20617
1.18232
1.15727
1.13149
1.10538
1.07924
1.0533
1.02776
1.00271
0.978349
0.954498
0.931779
0.908806
0.88942
0.8623
0.66451
0.975756
1.21576
1.36992
1.4615
1.51195
1.53934
1.55038
1.54975
1.54327
1.5289
1.5097
1.48651
1.4601
1.43128
1.40073
1.36906
1.33675
1.30421
1.27176
1.23969
1.20814
1.17737
1.14728
1.11837
1.08985
1.06348
1.03558
1.01448
0.980508
0.896594
1.57456
1.95133
2.11872
2.17903
2.18067
2.16562
2.13373
2.0954
2.0547
2.01131
1.96605
1.91934
1.87179
1.82388
1.77594
1.72826
1.68112
1.63479
1.58947
1.54542
1.50259
1.46144
1.4213
1.38364
1.3457
1.31268
1.27477
1.2505
1.20389
2.25129
3.88457
4.19843
4.15137
4.0169
3.84912
3.69707
3.55796
3.42995
3.31106
3.19878
3.0917
2.9885
2.89
2.79616
2.70599
2.61912
2.53545
2.45507
2.3779
2.30424
2.2335
2.16686
2.1018
2.04292
1.98148
1.93248
1.87091
1.83395
1.76386
25.3733
18.843
15.4885
13.6033
12.3919
11.5344
10.8654
10.3061
9.81551
9.3707
8.95993
8.57683
8.21785
7.88157
7.56622
7.26999
6.99176
6.73061
6.48566
6.25586
6.04054
5.83806
5.6492
5.46909
5.3055
5.14007
5.00553
4.84217
4.74077
4.55369
0.55492
0.650597
0.894194
2.53218
21.4917
6.06771
3.82722
2.82644
2.26444
1.90532
1.65571
1.47178
1.33048
1.2185
1.112
1.01556
0.959818
0.911636
0.869501
0.832275
0.79908
0.76923
0.742188
0.71752
0.694924
0.672845
0.553702
0.642362
0.851994
2.18843
84.5939
18.8028
5.67895
3.6454
2.71925
2.19241
1.85397
1.61817
1.44406
1.30992
1.2032
1.09925
1.00434
0.951242
0.905077
0.864499
0.828484
0.796237
0.767133
0.740681
0.71648
0.694258
0.67248
0.551444
0.62965
0.788219
1.48504
6.36032
8.45156
4.52694
3.14214
2.4366
2.01227
1.73044
1.52985
1.37943
1.26201
1.16746
1.07259
0.984515
0.936063
0.893483
0.855689
0.821849
0.79131
0.763554
0.738171
0.714821
0.693282
0.672047
0.548698
0.616398
0.756063
1.09703
2.19733
6.31885
10.464
6.93594
4.39334
3.16893
2.48467
2.05819
1.77122
1.56648
1.41336
1.29431
1.19873
1.11994
1.0381
0.960379
0.917611
0.87946
0.845133
0.814021
0.785639
0.759595
0.735578
0.71332
0.692663
0.672107
0.545786
0.601491
0.703758
0.905807
1.33368
2.01526
2.56367
2.57257
2.31945
2.04266
1.81005
1.62421
1.47661
1.3581
1.26132
1.1808
1.11259
1.05383
1.00245
0.936479
0.89955
0.865971
0.83525
0.806998
0.780897
0.756676
0.734114
0.71302
0.693313
0.67345
0.543443
0.589705
0.666334
0.792125
0.976007
1.19899
1.37399
1.45082
1.44922
1.41361
1.35487
1.29221
1.23113
1.17389
1.12117
1.07295
1.02887
0.988457
0.95115
0.916967
0.88531
0.855907
0.828508
0.8029
0.778907
0.756373
0.735168
0.715161
0.696352
0.677067
0.542242
0.583246
0.645138
0.733966
0.850305
0.980466
1.09353
1.16831
1.20114
1.20424
1.19083
1.16426
1.13243
1.09825
1.06356
1.02939
0.996304
0.964557
0.934198
0.905355
0.87795
0.851934
0.827243
0.803809
0.78156
0.760422
0.740329
0.721197
0.703127
0.684178
0.542696
0.583679
0.64012
0.71224
0.79791
0.888955
0.971595
1.035
1.07466
1.09356
1.09655
1.08962
1.07449
1.05425
1.03105
1.00623
0.980653
0.954925
0.929429
0.904448
0.880143
0.856607
0.833891
0.812021
0.791003
0.770824
0.751476
0.732892
0.715319
0.69634
0.545514
0.593209
0.652943
0.721141
0.794485
0.867819
0.934341
0.9883
1.02666
1.04996
1.0603
1.06024
1.05442
1.04188
1.02509
1.00571
0.984657
0.962633
0.940133
0.917529
0.895087
0.872996
0.851383
0.830335
0.809913
0.790142
0.771063
0.752586
0.735199
0.715677
0.552071
0.616414
0.689529
0.76383
0.835365
0.901391
0.958999
1.00565
1.03998
1.06227
1.07371
1.07571
1.0724
1.06328
1.04908
1.03195
1.01278
0.992232
0.970854
0.94905
0.927133
0.905334
0.883825
0.862725
0.842133
0.822082
0.802681
0.783725
0.766157
0.745374
0.565493
0.663458
0.764107
0.854713
0.931739
0.995426
1.04677
1.08628
1.11441
1.13213
1.14027
1.14023
1.13568
1.12523
1.11031
1.0925
1.07261
1.05128
1.02905
1.00631
0.983385
0.960523
0.937912
0.915674
0.893949
0.872722
0.852244
0.831982
0.813809
0.790721
0.594051
0.759351
0.910367
1.02848
1.11507
1.17675
1.22039
1.24984
1.26773
1.27649
1.27627
1.27099
1.25964
1.24384
1.22459
1.2028
1.17922
1.15444
1.12893
1.10307
1.07718
1.05146
1.02612
1.00125
0.977061
0.953357
0.930774
0.907907
0.888644
0.861595
0.664525
0.975907
1.21616
1.37054
1.46214
1.5123
1.53921
1.54953
1.54844
1.54137
1.52642
1.50696
1.48359
1.45712
1.42831
1.39784
1.36629
1.33413
1.30175
1.26947
1.23756
1.20617
1.17555
1.14561
1.11684
1.08843
1.06218
1.03434
1.01339
0.979418
0.896608
1.57479
1.95199
2.11976
2.18023
2.18161
2.16622
2.13363
2.09467
2.05334
2.00937
1.9637
1.91673
1.869
1.821
1.77303
1.72539
1.67834
1.63212
1.58693
1.54301
1.50031
1.45929
1.41927
1.38173
1.34387
1.31098
1.27302
1.2492
1.20205
2.2513
3.88493
4.19931
4.15238
4.01792
3.84961
3.69687
3.55693
3.42816
3.30863
3.19586
3.08844
2.98514
2.88642
2.79248
2.70229
2.61547
2.53192
2.45167
2.37465
2.30114
2.23053
2.16402
2.09906
2.0403
1.97887
1.93015
1.86773
1.83506
1.75757
25.3733
18.8425
15.4862
13.5986
12.3843
11.5244
10.8537
10.2934
9.80269
9.35838
8.94855
8.56663
8.20888
7.87368
7.55935
7.26402
6.98655
6.726
6.48149
6.25199
6.03686
5.83444
5.64558
5.46535
5.30168
5.13579
5.00206
4.83417
4.74983
4.53426
0.551813
0.633074
0.826201
1.44664
5.35356
92.9323
7.66322
4.34477
3.05985
2.38787
1.98022
1.70831
1.51412
1.36805
1.25372
1.1614
1.0705
0.985894
0.937305
0.894622
0.85674
0.822821
0.792214
0.764396
0.738958
0.715562
0.693984
0.672693
0.550693
0.627017
0.797647
1.29765
3.84615
57.6928
33.224
6.41596
3.94959
2.87723
2.28653
1.91703
1.66574
1.48397
1.34603
1.23733
1.14907
1.06007
0.976703
0.930213
0.889155
0.852543
0.819624
0.789807
0.762618
0.737684
0.71469
0.693436
0.672408
0.548704
0.616436
0.756173
1.09653
2.19491
6.40539
10.5199
6.96183
4.40377
3.17316
2.48694
2.0597
1.77224
1.56715
1.4138
1.29461
1.19894
1.12008
1.0382
0.960443
0.91766
0.879498
0.845163
0.814044
0.785658
0.75961
0.73559
0.71333
0.692672
0.672114
0.546324
0.604335
0.714007
0.940472
1.46083
2.33608
3.57884
3.46939
2.89235
2.40418
2.04563
1.78388
1.58874
1.43927
1.32156
1.22643
1.14769
1.08116
1.00972
0.940596
0.902384
0.867834
0.836362
0.807521
0.780952
0.756363
0.733516
0.712201
0.692311
0.672342
0.543986
0.592704
0.676796
0.823638
1.05166
1.47502
1.79245
1.89634
1.83655
1.7123
1.58214
1.46377
1.36102
1.27302
1.19755
1.13232
1.07535
1.02505
0.980159
0.920927
0.887506
0.856737
0.828275
0.801844
0.777212
0.75418
0.732585
0.712276
0.693217
0.673843
0.542216
0.583945
0.650226
0.751721
0.891794
1.05151
1.18749
1.26606
1.29001
1.2803
1.25087
1.2106
1.16723
1.12381
1.08183
1.04196
1.00441
0.969174
0.936023
0.90513
0.876108
0.848834
0.823164
0.798964
0.776126
0.75454
0.734113
0.714741
0.696463
0.677572
0.541485
0.57978
0.635979
0.713222
0.810544
0.917234
1.01304
1.08168
1.11956
1.13256
1.1287
1.11391
1.09123
1.06483
1.03655
1.00764
0.978839
0.950576
0.923076
0.896561
0.871067
0.846626
0.823235
0.800876
0.779516
0.759114
0.739632
0.721002
0.70336
0.68472
0.542281
0.581787
0.635226
0.701636
0.778428
0.858974
0.932962
0.991632
1.03129
1.05324
1.06074
1.05794
1.04814
1.03221
1.01277
0.991144
0.9683
0.944885
0.921338
0.897992
0.875053
0.85266
0.8309
0.80983
0.789484
0.769867
0.75099
0.732796
0.715564
0.696822
0.545327
0.592338
0.650605
0.715982
0.784979
0.853167
0.915026
0.965838
1.00313
1.02701
1.03903
1.04108
1.03722
1.02739
1.01275
0.995309
0.975979
0.955453
0.93425
0.91276
0.891272
0.869994
0.849072
0.828613
0.808692
0.789344
0.770625
0.752448
0.735333
0.71599
0.552019
0.616154
0.688707
0.761767
0.831207
0.894525
0.949462
0.994035
1.02722
1.04927
1.06116
1.06405
1.0615
1.05371
1.04071
1.02472
1.00659
0.986986
0.966448
0.945388
0.924123
0.902893
0.881879
0.861207
0.840985
0.821252
0.802126
0.783399
0.766049
0.745403
0.565508
0.66353
0.764135
0.854369
0.930521
0.992866
1.04267
1.08075
1.10784
1.12495
1.13296
1.13308
1.12875
1.11881
1.10448
1.08728
1.06798
1.04722
1.02551
1.00325
0.980769
0.9583
0.93604
0.914113
0.892661
0.871674
0.851409
0.831322
0.813331
0.790348
0.594091
0.759583
0.910864
1.02911
1.11549
1.17655
1.21928
1.24769
1.2647
1.27267
1.2721
1.26651
1.25498
1.23928
1.22023
1.1987
1.17542
1.15094
1.12575
1.1002
1.07459
1.04914
1.02406
0.999415
0.975435
0.951915
0.929504
0.906771
0.887666
0.8607
0.664563
0.976213
1.21695
1.37178
1.46356
1.51347
1.53978
1.54914
1.54741
1.53945
1.52369
1.50379
1.48007
1.45342
1.42455
1.39412
1.36267
1.33065
1.29846
1.26637
1.23465
1.20346
1.17304
1.14327
1.11467
1.08641
1.06031
1.03257
1.01177
0.97786
0.896633
1.57516
1.95305
2.12143
2.18223
2.18331
2.16747
2.13393
2.09405
2.05178
2.00695
1.96065
1.91321
1.86515
1.81696
1.76891
1.72127
1.67428
1.62819
1.58314
1.53938
1.49684
1.456
1.41613
1.37874
1.34101
1.30826
1.27038
1.24671
1.19959
2.25131
3.88545
4.20057
4.15382
4.01938
3.8503
3.69653
3.55536
3.42543
3.30489
3.19132
3.08333
2.97977
2.8807
2.78655
2.6963
2.60953
2.52609
2.44602
2.36919
2.29588
2.22548
2.15916
2.09435
2.03576
1.97443
1.92585
1.86347
1.83088
1.75339
25.3732
18.8418
15.4828
13.5916
12.3732
11.5095
10.8357
10.2736
9.78213
9.33805
8.92915
8.54857
8.19236
7.85856
7.54559
7.25152
6.97514
6.71549
6.47169
6.24273
6.02796
5.82576
5.637
5.45672
5.29302
5.12688
4.99303
4.82486
4.74022
4.52454
0.54819
0.613624
0.743928
1.02295
1.81022
3.95419
5.88162
4.05756
3.14706
2.53323
2.1188
1.82879
1.61809
1.45941
1.33588
1.2368
1.15526
1.08665
1.0278
0.95656
0.915211
0.878134
0.844622
0.814134
0.786236
0.760568
0.736836
0.714792
0.694306
0.673826
0.547317
0.609154
0.728274
0.978198
1.61335
3.18758
4.58022
3.45568
2.84148
2.36118
2.01385
1.76078
1.57175
1.42655
1.31184
1.21881
1.14159
1.07616
1.0197
0.949363
0.909593
0.87376
0.841239
0.811542
0.784279
0.759122
0.735802
0.714093
0.693881
0.673619
0.545795
0.601545
0.70399
0.906303
1.33423
2.01824
2.56854
2.58012
2.32492
2.04605
1.81224
1.62573
1.47769
1.35888
1.26188
1.18121
1.11289
1.05406
1.00261
0.936592
0.899639
0.866042
0.835306
0.807043
0.780933
0.756706
0.734138
0.71304
0.69333
0.673463
0.54399
0.592726
0.676872
0.823802
1.05191
1.47565
1.79388
1.89813
1.83805
1.7134
1.58291
1.46434
1.36143
1.27333
1.19778
1.13249
1.07548
1.02515
0.980237
0.920981
0.887549
0.856772
0.828303
0.801866
0.77723
0.754195
0.732597
0.712286
0.693225
0.67385
0.542295
0.584563
0.652922
0.760069
0.910555
1.15266
1.35184
1.45887
1.47433
1.43751
1.37754
1.31177
1.24729
1.18712
1.13207
1.08202
1.03652
0.995011
0.956979
0.905662
0.875932
0.848137
0.822075
0.797585
0.774526
0.752765
0.732202
0.712732
0.694372
0.675484
0.541119
0.578789
0.635944
0.717573
0.823507
0.940824
1.04576
1.11777
1.15403
1.16207
1.15312
1.13214
1.10458
1.07404
1.04242
1.01084
0.979913
0.94999
0.921178
0.89373
0.867489
0.842477
0.818651
0.795963
0.774362
0.753788
0.734189
0.715493
0.697788
0.67928
0.540866
0.576884
0.6281
0.695296
0.776472
0.863675
0.943937
1.00594
1.0458
1.06566
1.07002
1.06419
1.05052
1.03156
1.00962
0.985986
0.961552
0.936897
0.912386
0.888327
0.864864
0.842103
0.820102
0.79889
0.778477
0.758857
0.740021
0.721922
0.70474
0.686389
0.542006
0.580449
0.631404
0.692826
0.761714
0.832712
0.898404
0.952234
0.991022
1.01501
1.02624
1.02719
1.02195
1.01047
0.994722
0.976366
0.956339
0.935326
0.91382
0.892193
0.870697
0.849515
0.82877
0.808549
0.788911
0.769886
0.751503
0.733716
0.716848
0.698316
0.545274
0.592003
0.649287
0.712346
0.777452
0.840778
0.898064
0.945615
0.98147
1.00552
1.01883
1.0228
1.02063
1.01339
1.0009
0.985419
0.96784
0.948855
0.928994
0.908664
0.888172
0.867745
0.847547
0.827702
0.808301
0.789393
0.771047
0.753176
0.73635
0.717154
0.552088
0.616394
0.688845
0.761119
0.828846
0.889686
0.941964
0.984336
1.01615
1.03767
1.04975
1.05336
1.05144
1.04481
1.03296
1.01808
1.00097
0.982314
0.962625
0.942319
0.92172
0.901072
0.880563
0.860328
0.840484
0.821075
0.802229
0.783729
0.766613
0.746069
0.565624
0.664042
0.765043
0.855349
0.930989
0.992206
1.04052
1.07707
1.10294
1.11921
1.12688
1.12697
1.12272
1.11309
1.09926
1.08259
1.06383
1.0436
1.02239
1.0006
0.978544
0.956463
0.934552
0.912934
0.891758
0.87101
0.85096
0.831043
0.813247
0.790339
0.594202
0.760179
0.91214
1.03096
1.1175
1.17814
1.22001
1.24728
1.26325
1.27018
1.2691
1.26295
1.25105
1.23528
1.21628
1.1949
1.17183
1.1476
1.12267
1.09739
1.07205
1.04686
1.02202
0.997604
0.973831
0.950494
0.928259
0.905658
0.886724
0.859827
0.664645
0.976796
1.2184
1.37409
1.46638
1.51621
1.54195
1.55022
1.54769
1.5385
1.52183
1.50118
1.47689
1.44985
1.42076
1.39024
1.35879
1.32684
1.29477
1.26283
1.2313
1.20029
1.17005
1.14046
1.11203
1.08393
1.05798
1.03037
1.00969
0.975906
0.896677
1.57574
1.95464
2.12397
2.18534
2.18619
2.16984
2.13516
2.0941
2.05054
2.00458
1.95735
1.90921
1.86062
1.81205
1.76378
1.71605
1.66906
1.62304
1.57811
1.5345
1.49214
1.45147
1.41177
1.37456
1.33698
1.30437
1.26671
1.24282
1.19638
2.25132
3.88612
4.20221
4.15569
4.02128
3.8512
3.69604
3.55321
3.42166
3.29967
3.18493
3.07605
2.97199
2.87238
2.77787
2.68746
2.60068
2.51734
2.43745
2.36085
2.2878
2.21764
2.15158
2.08699
2.02862
1.96749
1.9189
1.85756
1.8207
1.75083
25.3732
18.8409
15.4786
13.5827
12.3585
11.4892
10.8107
10.2454
9.75199
9.30736
8.89891
8.51946
8.16476
7.83248
7.52109
7.22855
6.95358
6.69516
6.4524
6.22427
6.01016
5.80844
5.62004
5.43995
5.27634
5.11041
4.97544
4.81174
4.70842
4.52183
0.54511
0.597676
0.689595
0.855704
1.12337
1.59343
1.96532
1.78331
1.71114
1.60785
1.5022
1.40409
1.31661
1.23973
1.17231
1.11294
1.06031
1.01327
0.970688
0.932369
0.897421
0.865382
0.835857
0.808527
0.783126
0.759442
0.737294
0.716514
0.697064
0.677273
0.544503
0.59475
0.680851
0.830776
1.06416
1.47757
1.80388
1.65052
1.61254
1.53457
1.44774
1.36324
1.28567
1.21605
1.154
1.09867
1.0491
1.00443
0.963724
0.926873
0.893089
0.861982
0.833206
0.806483
0.781576
0.758296
0.736479
0.71597
0.696744
0.677133
0.543452
0.589752
0.666511
0.792685
0.976858
1.2004
1.37591
1.45298
1.45127
1.41529
1.35618
1.29323
1.23192
1.1745
1.12165
1.07333
1.02916
0.988688
0.951332
0.917112
0.885425
0.856
0.828583
0.802962
0.778957
0.756415
0.735203
0.71519
0.696376
0.677086
0.542221
0.583973
0.650314
0.75194
0.892142
1.05209
1.18831
1.267
1.29093
1.28112
1.25154
1.21114
1.16766
1.12415
1.0821
1.04218
1.00459
0.969314
0.936136
0.905221
0.876181
0.848894
0.823212
0.799004
0.776159
0.754568
0.734136
0.71476
0.696479
0.677585
0.541121
0.5788
0.635975
0.717642
0.82362
0.941007
1.04601
1.11806
1.15433
1.16234
1.15337
1.13235
1.10475
1.07418
1.04254
1.01093
0.979988
0.950051
0.921229
0.893771
0.867522
0.842504
0.818673
0.795982
0.774378
0.753801
0.734199
0.715502
0.697796
0.679286
0.540479
0.57557
0.626341
0.6942
0.77735
0.86728
0.950078
1.01337
1.05322
1.07209
1.07508
1.06792
1.05263
1.03243
1.00944
0.984966
0.959858
0.934687
0.90979
0.885461
0.861796
0.838878
0.816762
0.795473
0.775016
0.755377
0.73654
0.718459
0.701285
0.683051
0.540647
0.575599
0.623642
0.683769
0.753315
0.82638
0.894474
0.949962
0.989346
1.01299
1.02334
1.02325
1.01692
1.00416
0.987577
0.968533
0.947972
0.92656
0.904769
0.882962
0.861363
0.840143
0.819414
0.799252
0.779706
0.760798
0.742547
0.724917
0.708155
0.689987
0.542082
0.580494
0.630312
0.688471
0.751609
0.815271
0.87412
0.923425
0.960617
0.985429
0.999062
1.00313
1.00078
0.993264
0.980694
0.965174
0.947629
0.928758
0.909082
0.888999
0.868803
0.848711
0.828878
0.809419
0.790415
0.771915
0.753966
0.736526
0.719987
0.70156
0.545525
0.592867
0.650277
0.712276
0.774772
0.834346
0.887745
0.932277
0.966459
0.990135
1.00409
1.00943
1.00843
1.00316
0.992492
0.97865
0.962561
0.944901
0.926203
0.906882
0.887256
0.867568
0.848001
0.828689
0.809737
0.791204
0.773173
0.755549
0.738981
0.719831
0.55241
0.617665
0.690974
0.763473
0.830427
0.889557
0.939655
0.979957
1.01025
1.03091
1.04276
1.04668
1.04508
1.03917
1.02816
1.01412
0.997816
0.979905
0.9609
0.941208
0.921153
0.900983
0.88089
0.861015
0.841481
0.822333
0.803714
0.785385
0.768479
0.747941
0.565937
0.665416
0.767666
0.858926
0.934818
0.995479
1.04263
1.07777
1.10231
1.11748
1.12445
1.12424
1.11976
1.11007
1.09646
1.08008
1.06165
1.04177
1.0209
0.999448
0.977706
0.955916
0.934268
0.912888
0.891924
0.871359
0.85148
0.831679
0.814066
0.791146
0.594453
0.761455
0.914851
1.03504
1.12239
1.18309
1.22434
1.2505
1.2653
1.27092
1.2691
1.26202
1.24952
1.23332
1.2141
1.19264
1.16958
1.14542
1.12062
1.09548
1.07031
1.04529
1.02062
0.996359
0.972742
0.949542
0.92745
0.904935
0.886172
0.859273
0.66481
0.977879
1.22099
1.37822
1.47158
1.52168
1.54699
1.5541
1.55064
1.53989
1.52206
1.50032
1.47514
1.44742
1.41785
1.38699
1.35535
1.32333
1.29124
1.25936
1.22791
1.19701
1.1669
1.13745
1.10917
1.08118
1.05539
1.02786
1.00733
0.97361
0.896756
1.57664
1.95706
2.12782
2.19013
2.19092
2.17403
2.13804
2.09552
2.05031
2.00287
1.95436
1.9052
1.85577
1.80659
1.7579
1.7099
1.66279
1.61674
1.57186
1.52836
1.48613
1.44563
1.40609
1.36906
1.33163
1.29919
1.2617
1.23776
1.19171
2.25133
3.88698
4.20428
4.15807
4.0237
3.85234
3.69537
3.55037
3.41667
3.29268
3.17628
3.0661
2.96119
2.8608
2.76575
2.67502
2.58814
2.50487
2.42515
2.34879
2.27603
2.20616
2.14043
2.07611
2.01806
1.95717
1.90878
1.84788
1.81044
1.74167
25.3732
18.8399
15.4734
13.5714
12.3395
11.4625
10.7771
10.2064
9.70942
9.26291
8.85395
8.47503
8.12153
7.79071
7.48101
7.19023
6.91697
6.66017
6.41885
6.19199
5.97897
5.77813
5.59052
5.41095
5.24793
5.08217
4.9477
4.784
4.68029
4.49485
0.543304
0.588127
0.65822
0.764756
0.911945
1.07634
1.21414
1.3018
1.32126
1.30746
1.27416
1.23176
1.18667
1.14178
1.0985
1.05745
1.01883
0.982648
0.948694
0.916938
0.887175
0.859218
0.83293
0.808181
0.784848
0.762812
0.741976
0.722229
0.70364
0.684287
0.542916
0.586338
0.653384
0.753175
0.88834
1.03786
1.16566
1.2507
1.27675
1.26924
1.24401
1.20748
1.16725
1.12626
1.08608
1.04749
1.01084
0.976232
0.943547
0.912817
0.883883
0.856606
0.830879
0.80659
0.783636
0.761914
0.741339
0.721806
0.703398
0.684189
0.542249
0.583282
0.645255
0.734294
0.850868
0.981334
1.09466
1.16959
1.20241
1.20537
1.1918
1.16507
1.13308
1.09879
1.064
1.02974
0.996592
0.96479
0.934388
0.90551
0.878077
0.852038
0.827329
0.80388
0.78162
0.760471
0.740371
0.721232
0.703156
0.684203
0.54149
0.579806
0.636053
0.713396
0.810836
0.917681
1.01363
1.08237
1.12027
1.13321
1.12929
1.11441
1.09165
1.06517
1.03684
1.00788
0.979035
0.950737
0.923209
0.89667
0.871157
0.846701
0.823298
0.800928
0.77956
0.759151
0.739662
0.721028
0.703382
0.684739
0.540869
0.576898
0.628136
0.695376
0.776605
0.863876
0.944205
1.00626
1.04613
1.06598
1.07031
1.06446
1.05074
1.03175
1.00977
0.98612
0.961664
0.93699
0.912464
0.888392
0.864919
0.842149
0.82014
0.798922
0.778504
0.75888
0.74004
0.721938
0.704754
0.6864
0.540648
0.575604
0.623655
0.683796
0.753359
0.826446
0.894561
0.950065
0.989457
1.0131
1.02345
1.02335
1.01701
1.00423
0.987639
0.968586
0.948018
0.926599
0.904802
0.882989
0.861387
0.840163
0.819431
0.799267
0.779718
0.760808
0.742555
0.724925
0.708162
0.689993
0.54114
0.577094
0.624693
0.681407
0.744015
0.807901
0.867354
0.917262
0.95486
0.979841
0.99347
0.997455
0.994969
0.987253
0.9746
0.959002
0.941409
0.922521
0.90286
0.882822
0.862696
0.842691
0.822958
0.803609
0.784721
0.76634
0.748512
0.731202
0.714753
0.696567
0.542783
0.582964
0.633833
0.69123
0.751333
0.810279
0.864143
0.909611
0.944797
0.969351
0.984031
0.990004
0.989295
0.984422
0.974235
0.960745
0.945019
0.927737
0.90943
0.89051
0.871291
0.852014
0.832855
0.813947
0.795391
0.777249
0.759588
0.742355
0.726049
0.707537
0.546318
0.595856
0.655249
0.718123
0.779899
0.837327
0.887928
0.929869
0.962221
0.984972
0.998805
1.00466
1.0042
0.999941
0.990515
0.977691
0.962577
0.945808
0.927901
0.909268
0.890232
0.871044
0.851894
0.832927
0.814256
0.795948
0.7781
0.760593
0.744202
0.724918
0.553189
0.620778
0.696579
0.770931
0.838551
0.897098
0.945755
0.984296
1.01298
1.0324
1.04347
1.04708
1.04537
1.03947
1.02879
1.0151
0.999187
0.981659
0.963018
0.943661
0.923906
0.903999
0.884133
0.864449
0.845075
0.826053
0.807546
0.789268
0.772507
0.751808
0.566612
0.668339
0.773297
0.86695
0.944301
1.00527
1.05177
1.08566
1.10878
1.12253
1.12836
1.12748
1.12225
1.11195
1.09812
1.08162
1.06316
1.0433
1.0225
1.00113
0.979482
0.957791
0.936241
0.91495
0.894068
0.873568
0.853762
0.83397
0.816496
0.793413
0.594963
0.763971
0.920092
1.04291
1.13212
1.19357
1.23455
1.25966
1.27316
1.2771
1.27423
1.26574
1.25221
1.23514
1.21529
1.19337
1.16998
1.14562
1.12067
1.09547
1.07027
1.04526
1.02062
0.996396
0.972831
0.949671
0.927652
0.90513
0.88652
0.859489
0.665131
0.979877
1.22559
1.38543
1.4807
1.53156
1.55665
1.56251
1.55794
1.54527
1.52587
1.50258
1.47609
1.44728
1.41685
1.38534
1.35322
1.32086
1.28855
1.25653
1.22502
1.19411
1.16403
1.13462
1.10641
1.07849
1.0528
1.02529
1.00493
0.971167
0.896904
1.57814
1.96091
2.13385
2.19764
2.19855
2.18108
2.14359
2.09924
2.05192
2.00255
1.95229
1.90167
1.85104
1.80091
1.75152
1.70303
1.65559
1.60937
1.56442
1.52094
1.47877
1.43839
1.39897
1.36212
1.32481
1.29258
1.2552
1.23134
1.18554
2.25136
3.88815
4.20706
4.16123
4.02691
3.85387
3.6945
3.54667
3.41012
3.28346
3.1648
3.05279
2.94657
2.84511
2.74927
2.65805
2.57094
2.48765
2.40808
2.33196
2.25954
2.19002
2.1247
2.06072
2.00311
1.94251
1.89451
1.83394
1.79659
1.72829
25.3732
18.8386
15.467
13.5569
12.3148
11.4271
10.7318
10.153
9.65013
9.19991
8.78911
8.40981
8.05703
7.72751
7.41954
7.13077
6.85963
6.60491
6.36559
6.14056
5.92923
5.72985
5.54362
5.36511
5.20327
5.03816
4.90471
4.74152
4.63806
4.45376
0.543319
0.58648
0.647267
0.727744
0.82662
0.932461
1.02695
1.09724
1.1355
1.14885
1.14503
1.13107
1.10896
1.0829
1.05476
1.02577
0.996729
0.968085
0.940146
0.913129
0.887128
0.862182
0.838288
0.815433
0.793592
0.772723
0.752797
0.73373
0.715741
0.696443
0.543089
0.585449
0.644637
0.722017
0.815938
0.916046
1.0061
1.07419
1.11332
1.12887
1.12747
1.11641
1.09671
1.07275
1.04637
1.01887
0.99105
0.96343
0.936349
0.910045
0.884637
0.860184
0.836701
0.81419
0.792636
0.772008
0.752283
0.733384
0.71554
0.696356
0.542702
0.583706
0.640199
0.712434
0.79826
0.889486
0.972283
1.03579
1.07547
1.09433
1.09724
1.09024
1.07501
1.05469
1.03143
1.00654
0.980915
0.955143
0.929612
0.9046
0.88027
0.856714
0.83398
0.812096
0.791066
0.770877
0.751521
0.73293
0.715351
0.696367
0.542285
0.581808
0.635282
0.701759
0.778642
0.859295
0.933381
0.992121
1.0318
1.05375
1.0612
1.05836
1.0485
1.03253
1.01303
0.991371
0.968492
0.945047
0.921475
0.898107
0.87515
0.852741
0.830968
0.809888
0.789533
0.769909
0.751025
0.732826
0.71559
0.696843
0.542009
0.580463
0.631437
0.692895
0.761831
0.832886
0.898632
0.952504
0.991312
1.0153
1.02652
1.02744
1.02218
1.01067
0.994892
0.976512
0.956464
0.935433
0.913911
0.89227
0.870763
0.849571
0.828818
0.808589
0.788945
0.769915
0.751528
0.733737
0.716866
0.698331
0.542083
0.580501
0.630329
0.688504
0.751664
0.815351
0.874226
0.923552
0.960756
0.985571
0.999199
1.00325
1.0009
0.993368
0.980785
0.965254
0.947698
0.928818
0.909134
0.889043
0.868841
0.848743
0.828906
0.809443
0.790436
0.771932
0.753981
0.736539
0.719998
0.701569
0.542784
0.582967
0.633839
0.691241
0.751351
0.810307
0.86418
0.909655
0.944846
0.969401
0.98408