/*--------------------------------*- C++ -*----------------------------------*\
  =========                 |
  \\      /  F ield         | OpenFOAM: The Open Source CFD Toolbox
   \\    /   O peration     | Website:  https://openfoam.org
    \\  /    A nd           | Version:  10
     \\/     M anipulation  |
\*---------------------------------------------------------------------------*/
FoamFile
{
    format      ascii;
    class       volScalarField;
    location    "600";
    object      p;
}
// * * * * * * * * * * * * * * * * * * * * * * * * * * * * * * * * * * * * * //

dimensions      [0 2 -2 0 0 0 0];

internalField   nonuniform List<scalar> 
27507
(
122.547
192.093
293.656
508.785
-49.5383
-31.5464
-19.3602
-11.5235
-6.48118
-3.31124
-1.37664
-0.233451
0.417312
0.870928
0.988687
0.836757
0.837394
0.788612
0.716163
0.64276
0.571618
0.499207
0.458672
0.323468
0.694699
106.33
159.026
260.479
437.923
-48.344
-30.0263
-18.3206
-10.8701
-6.10332
-3.10583
-1.27041
-0.181699
0.437045
0.848867
0.979615
0.849711
0.837003
0.785756
0.712364
0.638136
0.566444
0.495065
0.448968
0.335608
0.641345
86.9416
110.82
193.539
316.775
-67.6556
-41.8674
-25.3724
-15.4949
-9.22689
-5.18954
-2.61901
-1.02274
-0.0640912
0.482375
0.821111
0.952968
0.847978
0.824695
0.769936
0.697001
0.62341
0.552428
0.482191
0.433916
0.326452
0.600458
69.7061
72.755
113.229
184.969
206.563
9.84207
-114.848
-59.5078
-33.2429
-19.8254
-12.0449
-7.17525
-4.02782
-1.99551
-0.710193
0.0753561
0.528686
0.763063
0.905056
0.832652
0.801342
0.743204
0.671988
0.600202
0.530869
0.4623
0.412647
0.309272
0.546906
53.5589
52.0111
59.8251
71.9552
78.2
14.8777
-61.2466
-58.0671
-35.8955
-21.649
-13.1264
-7.91759
-4.63247
-2.513
-1.13979
-0.264141
0.274433
0.570024
0.697923
0.839138
0.798719
0.763489
0.703895
0.636051
0.567637
0.501295
0.435399
0.385194
0.286522
0.482472
39.2893
38.1742
38.2566
38.9821
21.5091
0.352948
-25.5146
-25.8453
-18.5696
-11.8234
-7.3447
-4.39585
-2.43867
-1.15091
-0.315599
0.210426
0.524798
0.6834
0.7781
0.777602
0.750683
0.708244
0.651455
0.589037
0.525707
0.463881
0.401916
0.352238
0.259441
0.411353
27.9467
26.7954
25.2864
22.2072
12.4454
-3.8108
-12.8568
-15.5368
-11.7136
-8.01346
-5.25221
-3.2225
-1.79536
-0.824569
-0.179461
0.234596
0.486558
0.620687
0.674968
0.698973
0.67541
0.636147
0.586367
0.531357
0.47491
0.419173
0.36254
0.314736
0.22937
0.337526
19.6947
18.4351
16.327
12.3447
5.71306
-2.75235
-7.90559
-9.31922
-7.55239
-5.50449
-3.73913
-2.33751
-1.30619
-0.583139
-0.0912972
0.230329
0.429094
0.539127
0.590099
0.602186
0.583404
0.551182
0.509978
0.463909
0.415948
0.367815
0.318011
0.273682
0.197586
0.264784
14.0859
12.7474
10.4515
6.62192
1.93115
-2.86762
-5.56144
-6.22968
-5.25282
-3.96981
-2.77626
-1.78514
-1.02616
-0.47623
-0.0924202
0.165234
0.328955
0.423738
0.471094
0.485104
0.47573
0.453428
0.422784
0.387321
0.349383
0.310335
0.268916
0.229886
0.165123
0.196439
10.5738
9.13757
6.77107
3.40056
0.058608
-2.80277
-4.27317
-4.53872
-3.89763
-3.03045
-2.19053
-1.46892
-0.898362
-0.470106
-0.161792
0.0522093
0.194075
0.281817
0.330805
0.35229
0.354189
0.343862
0.325507
0.302095
0.275547
0.246988
0.21553
0.183781
0.132628
0.135062
8.64378
7.09318
4.70589
1.86055
-0.582557
-2.40857
-3.29824
-3.41993
-3.00432
-2.41844
-1.82655
-1.30029
-0.868725
-0.531873
-0.279405
-0.0962837
0.032196
0.118495
0.173341
0.2051
0.219941
0.223262
0.218586
0.208431
0.194453
0.177658
0.157691
0.135278
0.100202
0.0823241
7.82575
6.18978
3.89831
1.58199
-0.281321
-1.61328
-2.3095
-2.48249
-2.2936
-1.9519
-1.57036
-1.20836
-0.893296
-0.633606
-0.427792
-0.269108
-0.149549
-0.0616438
0.00138532
0.0451823
0.0742043
0.0923192
0.102319
0.106334
0.105851
0.101873
0.0947644
0.0836722
0.0672364
0.0388583
7.69074
6.08357
4.08588
2.25275
0.727333
-0.441475
-1.18219
-1.54073
-1.61199
-1.51895
-1.34459
-1.14086
-0.938161
-0.752898
-0.591837
-0.456131
-0.344343
-0.253948
-0.181952
-0.125399
-0.081635
-0.0481573
-0.0229394
-0.00422586
0.00935444
0.0188787
0.0256531
0.0275868
0.0321714
0.00406771
7.81251
6.47818
4.96058
3.5149
2.16186
0.984524
0.0813525
-0.531551
-0.88906
-1.05889
-1.10129
-1.06292
-0.978505
-0.872026
-0.75892
-0.648515
-0.546082
-0.454259
-0.373961
-0.30504
-0.24678
-0.198044
-0.157619
-0.124183
-0.0964521
-0.0732904
-0.0522403
-0.0361095
-0.00909122
-0.025258
7.74795
7.00902
6.0056
4.85998
3.6313
2.42671
1.36171
0.504349
-0.127316
-0.555125
-0.815631
-0.947793
-0.987839
-0.966157
-0.906278
-0.825455
-0.735761
-0.645223
-0.558837
-0.479422
-0.408294
-0.345752
-0.291407
-0.244504
-0.203791
-0.168192
-0.134249
-0.103972
-0.0565579
-0.0522267
7.61963
7.31756
6.68539
5.78263
4.70018
3.53946
2.41285
1.415
0.599882
-0.0198101
-0.457537
-0.739985
-0.89903
-0.966143
-0.968826
-0.929267
-0.864413
-0.786618
-0.704435
-0.623448
-0.547044
-0.477038
-0.414064
-0.35811
-0.308287
-0.263711
-0.2207
-0.180104
-0.117404
-0.0890813
106.275
158.944
260.395
436.585
-48.1334
-29.9029
-18.2825
-10.859
-6.09977
-3.10453
-1.26986
-0.18145
0.437161
0.848929
0.979684
0.849768
0.837037
0.785779
0.71238
0.638147
0.566452
0.49507
0.44897
0.335607
0.641329
94.6509
131.296
228.87
380.502
-46.2345
-28.2061
-17.1773
-10.1989
-5.72906
-2.90618
-1.16845
-0.132779
0.456301
0.831218
0.968261
0.858012
0.834239
0.780949
0.707156
0.632477
0.560527
0.490123
0.439492
0.347943
0.585308
79.5996
92.9981
168.724
268.087
405.31
-70.3794
-39.4388
-23.835
-14.535
-8.65757
-4.86845
-2.44647
-0.934855
-0.0229193
0.497903
0.806731
0.940435
0.850891
0.819404
0.763371
0.690466
0.616818
0.54587
0.476699
0.424515
0.33787
0.546545
64.2198
64.8159
92.7703
159.67
178.191
53.1534
-116.663
-56.0177
-31.5598
-18.8182
-11.4068
-6.78075
-3.7957
-1.86609
-0.642529
0.10734
0.540804
0.75546
0.892218
0.829131
0.79288
0.734431
0.663674
0.592314
0.523384
0.456065
0.403188
0.318854
0.497848
49.6536
48.4703
53.3255
75.031
62.6469
14.4811
-51.8818
-51.9391
-33.317
-20.4406
-12.469
-7.52996
-4.40106
-2.37944
-1.06778
-0.229583
0.287352
0.573942
0.692529
0.828434
0.789328
0.751958
0.692986
0.625989
0.558452
0.492869
0.428415
0.375715
0.294012
0.439083
36.6082
35.537
34.6355
31.3302
18.4262
0.799051
-22.3044
-23.1652
-16.9473
-10.976
-6.85357
-4.10426
-2.26968
-1.05817
-0.270558
0.226475
0.52365
0.674943
0.7695
0.764237
0.736645
0.694358
0.638628
0.577438
0.515366
0.454609
0.394257
0.342829
0.264731
0.37415
26.1772
25.0016
23.0451
19.0036
10.6019
-3.72814
-11.6606
-14.0795
-10.8667
-7.50555
-4.92901
-3.02537
-1.68005
-0.761648
-0.150567
0.242081
0.480911
0.607705
0.658174
0.680729
0.658767
0.620429
0.572033
0.518576
0.463657
0.409233
0.354343
0.305516
0.232464
0.306735
18.5641
17.3455
15.1557
10.9917
4.91857
-2.7505
-7.37995
-8.65767
-7.12698
-5.22679
-3.5645
-2.23687
-1.25358
-0.561127
-0.0889569
0.22074
0.412729
0.519486
0.568741
0.581813
0.564868
0.534128
0.494663
0.450368
0.404109
0.357464
0.30947
0.264791
0.198607
0.240295
13.3769
12.1177
9.86703
6.0857
1.66857
-2.75176
-5.26822
-5.88122
-5.01208
-3.81156
-2.67929
-1.73319
-1.00454
-0.47398
-0.102404
0.148079
0.3081
0.4016
0.449034
0.464121
0.45648
0.435936
0.407159
0.373536
0.337356
0.299882
0.260267
0.221475
0.164307
0.177855
10.1291
8.79091
6.50942
3.24289
0.0410741
-2.65247
-4.06375
-4.32365
-3.7463
-2.93143
-2.13203
-1.44088
-0.891183
-0.476522
-0.176577
0.0326542
0.172276
0.259526
0.309084
0.33177
0.335357
0.3268
0.310255
0.288617
0.263772
0.23678
0.207039
0.17601
0.130308
0.121761
8.35443
6.91143
4.62105
1.87461
-0.490956
-2.24815
-3.12658
-3.26492
-2.89405
-2.34626
-1.78469
-1.28141
-0.865787
-0.539589
-0.293741
-0.114405
0.0122908
0.0981985
0.153537
0.186349
0.202616
0.207482
0.204401
0.19583
0.183397
0.168072
0.149654
0.128316
0.0967923
0.0735297
7.62126
6.09614
3.89817
1.65643
-0.160542
-1.46402
-2.16487
-2.35921
-2.20353
-1.89119
-1.53368
-1.19011
-0.888389
-0.637888
-0.438047
-0.282996
-0.165372
-0.0781928
-0.0150774
0.0293439
0.0593464
0.0786182
0.0898716
0.0951753
0.0959876
0.0932974
0.0874979
0.0777011
0.0632209
0.0337235
7.52834
6.02903
4.10865
2.32547
0.831631
-0.321136
-1.06637
-1.44119
-1.53545
-1.46418
-1.30848
-1.11971
-0.928393
-0.75139
-0.596076
-0.464189
-0.354759
-0.265638
-0.19414
-0.137537
-0.0933405
-0.0591909
-0.0331443
-0.0135079
0.00105228
0.0116192
0.0194087
0.0227178
0.0280195
0.00170609
7.66972
6.42626
4.96207
3.5509
2.22488
1.06416
0.163872
-0.455665
-0.825774
-1.00951
-1.06507
-1.03816
-0.963099
-0.863917
-0.756295
-0.649865
-0.550195
-0.460184
-0.380973
-0.312596
-0.254473
-0.205586
-0.164802
-0.130859
-0.102518
-0.0786235
-0.0568989
-0.0394932
-0.0126245
-0.0255439
7.63669
6.93496
5.96408
4.84552
3.64226
2.45829
1.40598
0.553668
-0.0791077
-0.511709
-0.778888
-0.91834
-0.965417
-0.950018
-0.895466
-0.818977
-0.732677
-0.644702
-0.560174
-0.482039
-0.411726
-0.349636
-0.295461
-0.248506
-0.207586
-0.171606
-0.137308
-0.106137
-0.0591654
-0.0515643
7.52478
7.22904
6.61476
5.73095
4.6684
3.52749
2.41776
1.43215
0.624319
0.00779576
-0.429848
-0.714306
-0.876562
-0.947382
-0.953791
-0.917688
-0.855863
-0.780605
-0.700468
-0.621071
-0.545853
-0.476688
-0.41427
-0.358631
-0.308935
-0.264304
-0.22117
-0.180159
-0.117728
-0.0877863
86.8965
110.688
193.387
315.694
-67.1671
-41.2504
-25.1638
-15.42
-9.19984
-5.17928
-2.61478
-1.02084
-0.0631621
0.48285
0.821342
0.953151
0.848128
0.824782
0.769993
0.69704
0.623437
0.552446
0.482201
0.433918
0.326449
0.600415
79.575
92.9132
168.351
266.97
372.118
-69.434
-39.4774
-23.7806
-14.4987
-8.64158
-4.86183
-2.44361
-0.933539
-0.0222669
0.498241
0.806893
0.940547
0.85098
0.819456
0.763405
0.69049
0.616834
0.545881
0.476705
0.424516
0.337867
0.546519
68.727
70.4934
122.978
187.75
228.546
-61.2917
-34.3481
-20.5144
-12.4481
-7.4047
-4.15326
-2.05887
-0.737655
0.067649
0.529024
0.781997
0.910735
0.837233
0.800644
0.743276
0.671858
0.599743
0.530188
0.462522
0.409281
0.327479
0.509694
55.7944
54.4253
66.4327
111.704
94.098
28.1166
-86.1238
-84.4809
-48.1354
-27.7482
-16.5667
-10.0002
-5.91712
-3.28946
-1.58713
-0.501514
0.168305
0.55613
0.731023
0.860472
0.80827
0.769442
0.711294
0.64269
0.573434
0.506373
0.440933
0.387593
0.308182
0.463627
43.3521
41.985
43.1424
45.3907
49.0359
3.43613
-36.1718
-40.259
-28.1124
-17.8736
-11.0633
-6.70927
-3.91573
-2.10215
-0.921653
-0.164201
0.305231
0.566362
0.664281
0.794222
0.761725
0.724042
0.66689
0.602661
0.537765
0.474516
0.412331
0.359817
0.28312
0.408012
32.2473
31.0922
29.8486
27.0329
13.9937
-3.90463
-17.4302
-19.2123
-14.4433
-9.59032
-6.07573
-3.65826
-2.02118
-0.930866
-0.217791
0.234637
0.506511
0.645919
0.733968
0.72773
0.703119
0.662878
0.610043
0.552104
0.493115
0.435089
0.377361
0.326766
0.253727
0.346571
23.3323
22.2102
20.291
16.1248
8.16943
-2.59455
-10.1649
-11.8325
-9.45758
-6.69489
-4.44665
-2.74736
-1.53095
-0.693022
-0.132036
0.230534
0.452404
0.571143
0.618773
0.640236
0.621601
0.586531
0.54165
0.491792
0.440262
0.388868
0.336885
0.289488
0.221481
0.282813
16.7618
15.6628
13.6191
9.6089
3.92617
-2.47389
-6.55554
-7.59035
-6.4044
-4.77861
-3.29523
-2.09083
-1.18734
-0.544461
-0.102933
0.189067
0.371928
0.47524
0.524262
0.539119
0.525931
0.498974
0.463358
0.422847
0.380133
0.336693
0.291788
0.249041
0.187797
0.220028
12.258
11.1429
9.08855
5.53656
1.42472
-2.48343
-4.77438
-5.31898
-4.60581
-3.55152
-2.52723
-1.65869
-0.982126
-0.483966
-0.132089
0.107462
0.262496
0.354951
0.403661
0.42146
0.417571
0.400905
0.376003
0.34613
0.313476
0.279239
0.242769
0.206277
0.153839
0.161101
9.44082
8.25609
6.17644
3.12113
0.12231
-2.34764
-3.68914
-3.95888
-3.48168
-2.76209
-2.03649
-1.39971
-0.886975
-0.495999
-0.210235
-0.00873473
0.127648
0.214669
0.265843
0.291247
0.298272
0.293325
0.28039
0.262254
0.240739
0.216864
0.190185
0.161666
0.120366
0.108278
7.92154
6.63481
4.53329
1.95957
-0.277596
-1.94026
-2.81097
-2.98848
-2.69402
-2.21701
-1.71165
-1.25043
-0.864056
-0.557177
-0.323221
-0.150554
-0.0268423
0.0585972
0.115085
0.150047
0.169092
0.17698
0.176992
0.171478
0.162009
0.149527
0.133946
0.115154
0.0875826
0.0630165
7.32576
5.95335
3.91999
1.80897
0.0751159
-1.18646
-1.89816
-2.13371
-2.03656
-1.77874
-1.46594
-1.1567
-0.879871
-0.646524
-0.457865
-0.309604
-0.195586
-0.109762
-0.0464734
-0.000869564
0.0309698
0.0524321
0.066056
0.0738006
0.0770633
0.0768037
0.0734787
0.0660849
0.0549823
0.0258583
7.29477
5.93475
4.14466
2.45534
1.02123
-0.10364
-0.855153
-1.25835
-1.39259
-1.3609
-1.23959
-1.07864
-0.908684
-0.747333
-0.603008
-0.478489
-0.373669
-0.287106
-0.216681
-0.1601
-0.115191
-0.0798495
-0.0523023
-0.0309731
-0.0145987
-0.0021329
0.00765069
0.0130514
0.0210341
-0.00381629
7.45715
6.32331
4.95004
3.60639
2.33088
1.20131
0.309701
-0.318707
-0.708769
-0.916237
-0.99506
-0.9889
-0.931206
-0.845879
-0.748893
-0.650346
-0.55629
-0.47008
-0.393255
-0.326182
-0.268549
-0.219555
-0.178228
-0.143429
-0.113997
-0.0888277
-0.0656842
-0.0466488
-0.0179081
-0.0289157
7.44029
6.79816
5.8831
4.81415
3.65612
2.50907
1.48071
0.639052
0.00595272
-0.434012
-0.712296
-0.86426
-0.923663
-0.919464
-0.874543
-0.805989
-0.725986
-0.642829
-0.561846
-0.486194
-0.417502
-0.356345
-0.302565
-0.255581
-0.214303
-0.177693
-0.142574
-0.110334
-0.0623053
-0.0529453
7.34173
7.06875
6.48597
5.63732
4.61232
3.50832
2.43
1.46715
0.672825
0.0619307
-0.375942
-0.664539
-0.833151
-0.91122
-0.924875
-0.895466
-0.839494
-0.769135
-0.692944
-0.616612
-0.54368
-0.476136
-0.414785
-0.359754
-0.310289
-0.265571
-0.222126
-0.18056
-0.117817
-0.0868796
69.686
72.4457
111.831
184.662
204.273
-151.975
-59.1326
-33.0666
-19.7181
-11.9855
-7.14556
-4.01362
-1.9887
-0.70682
0.0770999
0.529608
0.763538
0.905383
0.83292
0.801503
0.743311
0.672063
0.600254
0.530904
0.462322
0.412652
0.309267
0.546828
64.2097
64.704
92.0144
158.904
176.933
47.0246
-122.614
-56.2336
-31.5779
-18.7781
-11.3701
-6.75919
-3.78465
-1.86058
-0.639743
0.1088
0.541583
0.755861
0.892469
0.829336
0.793006
0.734515
0.663733
0.592355
0.523412
0.456082
0.403192
0.318848
0.49779
55.7991
54.4205
66.2918
111.326
94.1368
24.9884
-85.836
-84.6685
-48.1562
-27.768
-16.5622
-9.98852
-5.90822
-3.28425
-1.58432
-0.500016
0.169117
0.556574
0.731254
0.860613
0.808386
0.769517
0.711344
0.642725
0.573459
0.50639
0.440943
0.387597
0.308179
0.463595
45.788
44.0374
45.0564
51.1681
57.7909
4.75499
-49.8884
-54.4159
-36.7518
-22.5082
-13.6636
-8.25426
-4.85875
-2.67119
-1.2498
-0.337408
0.230393
0.562482
0.682356
0.807975
0.771638
0.732722
0.675712
0.610682
0.544918
0.480914
0.418191
0.365448
0.28894
0.420653
35.8154
34.4084
33.0485
31.7686
17.6129
0.996119
-22.6916
-28.1558
-21.7519
-14.6045
-9.2819
-5.69062
-3.32618
-1.77231
-0.753649
-0.0957511
0.31515
0.547368
0.621107
0.738728
0.717616
0.681812
0.627704
0.567799
0.507011
0.447384
0.388441
0.337281
0.264119
0.368831
26.9709
25.8236
24.0242
20.4054
10.6783
-3.18581
-12.8796
-14.5706
-11.5425
-7.98556
-5.17554
-3.15241
-1.75057
-0.80282
-0.176173
0.22531
0.469145
0.59678
0.678606
0.671875
0.652691
0.616232
0.567861
0.514822
0.460444
0.406525
0.35252
0.304025
0.235167
0.31161
19.8342
18.8213
16.9357
12.9542
6.05567
-2.25473
-8.11973
-9.4415
-7.85681
-5.73181
-3.87588
-2.42667
-1.36793
-0.627955
-0.126983
0.200308
0.403038
0.513683
0.559654
0.580881
0.56714
0.537085
0.497413
0.452824
0.406244
0.359312
0.31144
0.266813
0.203568
0.252276
14.5162
13.579
11.7521
8.07775
3.07022
-2.15146
-5.51883
-6.37768
-5.5281
-4.21752
-2.95844
-1.91131
-1.11088
-0.532145
-0.129959
0.13958
0.311168
0.410646
0.460114
0.477643
0.469766
0.448324
0.418242
0.383158
0.345541
0.306751
0.266205
0.226769
0.170732
0.193926
10.8501
9.91823
8.13016
4.91168
1.24837
-2.10462
-4.10624
-4.61116
-4.07993
-3.20905
-2.32682
-1.56142
-0.954701
-0.500627
-0.175413
0.0492898
0.197572
0.288668
0.339224
0.360762
0.362084
0.350885
0.331445
0.306879
0.279238
0.249646
0.217612
0.184792
0.137816
0.139284
8.56666
7.57518
5.76311
2.9968
0.279334
-1.93127
-3.17403
-3.47263
-3.12274
-2.52885
-1.90337
-1.34111
-0.879622
-0.521993
-0.256356
-0.0659978
0.0655289
0.151937
0.20514
0.234152
0.245832
0.245861
0.237943
0.224714
0.207893
0.188451
0.166091
0.141394
0.10558
0.0904806
7.36515
6.27563
4.42436
2.08399
0.023443
-1.52209
-2.37722
-2.60981
-2.415
-2.03337
-1.6054
-1.20277
-0.85783
-0.578682
-0.362092
-0.199406
-0.080434
0.00388239
0.0616105
0.0992964
0.122009
0.13399
0.138247
0.136975
0.131657
0.123191
0.111612
0.0965647
0.0742387
0.048903
6.93859
5.76015
3.94652
2.01287
0.394367
-0.810446
-1.532
-1.82136
-1.80107
-1.61709
-1.36606
-1.10491
-0.863501
-0.654921
-0.48269
-0.344636
-0.236274
-0.152857
-0.089732
-0.0427918
-0.00862364
0.015738
0.0325697
0.0436676
0.0503351
0.0534842
0.0536536
0.0496978
0.0433186
0.015072
6.98105
5.79887
4.18458
2.62437
1.274
0.18976
-0.565834
-1.00453
-1.1909
-1.21255
-1.13857
-1.01651
-0.87685
-0.738016
-0.609734
-0.496152
-0.398343
-0.31584
-0.247311
-0.191073
-0.145408
-0.108576
-0.0790525
-0.0554339
-0.0365626
-0.0214575
-0.00885819
-0.000539398
0.0113552
-0.0116045
7.16631
6.1727
4.92323
3.67339
2.4687
1.38435
0.508239
-0.12919
-0.544224
-0.783046
-0.8935
-0.916098
-0.882857
-0.817304
-0.735692
-0.648685
-0.562967
-0.482503
-0.409379
-0.344429
-0.287717
-0.238751
-0.196796
-0.160886
-0.129983
-0.103066
-0.0779226
-0.0566678
-0.0250978
-0.0338965
7.16793
6.60385
5.76449
4.76419
3.66916
2.57432
1.58105
0.756218
0.124529
-0.324336
-0.617253
-0.786238
-0.862734
-0.874279
-0.843046
-0.785874
-0.714985
-0.638867
-0.563113
-0.49117
-0.42494
-0.365245
-0.312136
-0.265199
-0.223476
-0.186024
-0.149758
-0.11609
-0.0664322
-0.0551707
7.08744
6.845
6.30437
5.50425
4.53156
3.47911
2.44506
1.51474
0.740119
0.137827
-0.299809
-0.593816
-0.771111
-0.85926
-0.883093
-0.86316
-0.815522
-0.752174
-0.68166
-0.60976
-0.540151
-0.474978
-0.4152
-0.361074
-0.311972
-0.267157
-0.223278
-0.180977
-0.117734
-0.0857875
53.7918
52.689
61.3444
87.8761
72.7444
15.7926
-54.2694
-59.1383
-36.0536
-21.6651
-13.0998
-7.88892
-4.61168
-2.49998
-1.13218
-0.259791
0.276921
0.571454
0.698689
0.839566
0.799082
0.763728
0.70406
0.636169
0.567721
0.501352
0.435435
0.385205
0.286517
0.482359
49.7658
48.695
53.7678
77.1031
62.0563
14.3632
-49.5233
-52.3001
-33.4896
-20.4718
-12.4577
-7.51032
-4.38505
-2.36888
-1.06143
-0.22589
0.289494
0.575185
0.693204
0.828801
0.789635
0.752164
0.693128
0.626091
0.558525
0.492919
0.428447
0.375726
0.294004
0.438992
43.4133
42.0948
43.3652
45.6458
49.3037
3.40891
-36.1503
-40.3714
-28.1731
-17.8919
-11.061
-6.7
-3.90675
-2.09565
-0.917502
-0.161689
0.306734
0.56725
0.664784
0.794492
0.761951
0.724198
0.666999
0.60274
0.537822
0.474556
0.412356
0.359827
0.283116
0.407946
35.8445
34.4597
33.1416
31.8757
17.7029
1.00027
-22.6929
-28.1803
-21.771
-14.6115
-9.2819
-5.68763
-3.32279
-1.76961
-0.751815
-0.0945893
0.31587
0.5478
0.621372
0.738867
0.717732
0.681896
0.627764
0.567844
0.507043
0.447407
0.388456
0.337287
0.264117
0.368798
28.3424
27.1592
25.2905
21.8066
11.5933
-0.350456
-13.4843
-18.0526
-15.3673
-11.0519
-7.32133
-4.59078
-2.71295
-1.44999
-0.610504
-0.0620877
0.284588
0.48644
0.543331
0.666981
0.6569
0.625506
0.576201
0.522151
0.466912
0.412212
0.357597
0.308823
0.239793
0.321577
21.6829
20.7076
18.8834
15.0271
7.45399
-2.71597
-9.0507
-10.5069
-8.77444
-6.33916
-4.22431
-2.61554
-1.46404
-0.669611
-0.136779
0.208765
0.421356
0.536929
0.610452
0.601061
0.586827
0.555705
0.513488
0.466861
0.418501
0.36998
0.320812
0.275496
0.211594
0.269467
16.2621
15.4375
13.7647
10.09
4.45826
-1.9492
-6.1713
-7.28159
-6.30149
-4.75009
-3.29034
-2.10448
-1.21363
-0.577639
-0.140173
0.150269
0.333564
0.437059
0.483692
0.505975
0.497898
0.474259
0.441297
0.403406
0.363129
0.321917
0.279283
0.238537
0.180997
0.215492
12.1857
11.4476
9.91247
6.64035
2.42496
-1.77838
-4.43521
-5.18203
-4.61979
-3.61635
-2.59639
-1.72059
-1.03487
-0.528081
-0.169864
0.0745931
0.233761
0.329338
0.380035
0.401083
0.399585
0.384948
0.361744
0.333407
0.302155
0.26922
0.234151
0.199141
0.149394
0.162516
9.3694
8.64294
7.15911
4.3229
1.1596
-1.66267
-3.36397
-3.85194
-3.49947
-2.8222
-2.09821
-1.45049
-0.924401
-0.522362
-0.22867
-0.0217194
0.118349
0.207651
0.260293
0.286226
0.293673
0.289033
0.276221
0.25814
0.236668
0.212844
0.186326
0.15827
0.117932
0.113067
7.63458
6.85436
5.33811
2.9004
0.498996
-1.44779
-2.58254
-2.92104
-2.70638
-2.252
-1.74194
-1.26727
-0.867216
-0.550214
-0.309574
-0.133376
-0.00839411
0.0766801
0.131859
0.164865
0.181865
0.18773
0.18579
0.178469
0.167356
0.15336
0.136329
0.116486
0.0873657
0.0691318
6.76004
5.88593
4.31227
2.23781
0.380185
-1.03806
-1.87207
-2.16676
-2.08125
-1.80808
-1.47088
-1.1383
-0.843936
-0.599274
-0.404805
-0.25523
-0.142918
-0.0607458
-0.00214681
0.0383398
0.0651065
0.0817776
0.0910064
0.0947779
0.0944542
0.0908772
0.0842048
0.0738353
0.0579239
0.0320138
6.50497
5.53981
3.97322
2.24353
0.76046
-0.377073
-1.10421
-1.4515
-1.5161
-1.41659
-1.23823
-1.03483
-0.836775
-0.659112
-0.50785
-0.38319
-0.282612
-0.20291
-0.140644
-0.092611
-0.0560326
-0.0284588
-0.00794834
0.00708023
0.0178043
0.0250668
0.0294943
0.0297754
0.0291694
0.00220543
6.61803
5.63308
4.21923
2.80934
1.559
0.525938
-0.228583
-0.703609
-0.946903
-1.02916
-1.01052
-0.934908
-0.832134
-0.721207
-0.613183
-0.513703
-0.42519
-0.348315
-0.282685
-0.227355
-0.181167
-0.142826
-0.111125
-0.08488
-0.0630732
-0.0448142
-0.0288057
-0.0169336
-0.000276541
-0.0208509
6.82241
5.9854
4.87852
3.73902
2.61941
1.59147
0.738145
0.094555
-0.346245
-0.619838
-0.766717
-0.823276
-0.819485
-0.778154
-0.715667
-0.643235
-0.568221
-0.495281
-0.427139
-0.365182
-0.309929
-0.261269
-0.218755
-0.181647
-0.149056
-0.120079
-0.0925343
-0.0686086
-0.0336248
-0.0397582
6.84251
6.36588
5.61418
4.69512
3.67563
2.64446
1.69548
0.893577
0.266271
-0.191164
-0.500269
-0.688953
-0.785743
-0.816314
-0.801849
-0.758784
-0.699313
-0.632106
-0.56305
-0.495922
-0.432947
-0.375244
-0.323118
-0.276363
-0.234185
-0.19577
-0.15814
-0.122776
-0.0711849
-0.0576999
6.78169
6.57378
6.08233
5.34005
4.43026
3.4401
2.46014
1.57018
0.820655
0.22995
-0.206482
-0.506425
-0.693901
-0.794161
-0.830395
-0.822116
-0.784809
-0.73021
-0.666822
-0.600518
-0.535131
-0.47299
-0.415239
-0.3623
-0.313691
-0.268791
-0.224401
-0.181234
-0.117425
-0.0843271
39.4375
38.5309
38.4528
36.5841
22.4547
0.361802
-25.1401
-26.0301
-18.6273
-11.8249
-7.33322
-4.38225
-2.42718
-1.1424
-0.309699
0.214373
0.527387
0.68509
0.77925
0.778319
0.751161
0.708565
0.651681
0.589201
0.525826
0.463965
0.401971
0.352258
0.259439
0.41121
36.6966
35.6984
34.9164
31.3898
18.8984
0.852616
-22.2549
-23.2568
-16.9822
-10.9763
-6.84497
-4.09389
-2.26059
-1.05127
-0.265669
0.229801
0.525863
0.676403
0.770505
0.764869
0.73707
0.694647
0.638832
0.577586
0.515474
0.454686
0.394307
0.342849
0.264725
0.374031
32.2957
31.1603
29.9473
26.941
14.1435
-3.90833
-17.415
-19.2461
-14.4554
-9.58812
-6.06953
-3.6514
-2.0151
-0.926101
-0.214303
0.237082
0.508181
0.647045
0.734773
0.728246
0.703469
0.66312
0.610216
0.552231
0.493209
0.435157
0.377405
0.326786
0.253724
0.346477
26.9952
25.8556
24.0627
20.3687
10.7444
-3.17805
-12.8674
-14.58
-11.5451
-7.98307
-5.1718
-3.14857
-1.74717
-0.800081
-0.174103
0.226809
0.4702
0.59751
0.679162
0.672237
0.652938
0.616405
0.567987
0.514917
0.460514
0.406576
0.352554
0.304041
0.235167
0.311547
21.6885
20.7133
18.8873
15.0064
7.46939
-2.71164
-9.04476
-10.5087
-8.77492
-6.33828
-4.22299
-2.6141
-1.46268
-0.668458
-0.135869
0.209448
0.42185
0.537279
0.610752
0.60126
0.586958
0.555797
0.513556
0.466912
0.41854
0.370009
0.320832
0.275507
0.211596
0.269437
16.9242
16.1398
14.5179
10.8375
4.9149
-2.13793
-6.41621
-7.52725
-6.4898
-4.84486
-3.31594
-2.09427
-1.18788
-0.546401
-0.108475
0.179839
0.35977
0.459422
0.510944
0.517143
0.507723
0.483005
0.448723
0.409847
0.368718
0.326745
0.283474
0.24237
0.184445
0.223002
13.0033
12.3693
10.9749
7.69155
3.14799
-1.64568
-4.6453
-5.51153
-4.91271
-3.81714
-2.71541
-1.78206
-1.05889
-0.528812
-0.157162
0.0943507
0.256538
0.351985
0.401879
0.419273
0.41681
0.400653
0.375626
0.345563
0.312672
0.278229
0.241829
0.205958
0.155168
0.174981
10.0348
9.48722
8.24714
5.40296
1.92075
-1.3993
-3.46687
-4.11136
-3.76489
-3.02914
-2.23639
-1.53049
-0.961308
-0.529743
-0.217673
7.9398e-05
0.145824
0.237076
0.289569
0.313675
0.319025
0.311986
0.296587
0.275938
0.251992
0.225849
0.197182
0.167539
0.125133
0.127978
7.9884
7.45628
6.2638
3.81889
1.13828
-1.20347
-2.63791
-3.11537
-2.91828
-2.4238
-1.85803
-1.33198
-0.891299
-0.545784
-0.286843
-0.0998402
0.0306182
0.117356
0.171852
0.202411
0.216321
0.218789
0.213303
0.202464
0.187955
0.170721
0.150558
0.128135
0.0954667
0.0843016
6.75378
6.17472
4.94248
2.83861
0.753717
-0.941626
-1.97371
-2.35271
-2.2658
-1.95054
-1.56067
-1.17967
-0.847148
-0.575772
-0.363996
-0.204668
-0.0880593
-0.00544618
0.0511374
0.0880079
0.11043
0.122457
0.126981
0.12615
0.121393
0.11354
0.102578
0.0883703
0.0669176
0.0457794
6.17508
5.50871
4.2072
2.40482
0.757034
-0.531608
-1.34036
-1.6948
-1.71631
-1.5542
-1.3134
-1.05713
-0.819305
-0.614137
-0.445748
-0.312198
-0.208613
-0.129959
-0.0713166
-0.028439
0.00226525
0.0237457
0.0382371
0.0474618
0.05263
0.0545067
0.0533695
0.0483531
0.0397294
0.0136168
6.07028
5.31362
3.99484
2.47684
1.13794
0.0747339
-0.651228
-1.05266
-1.20091
-1.18838
-1.08741
-0.947152
-0.797651
-0.655453
-0.52888
-0.420487
-0.329833
-0.255367
-0.194973
-0.146462
-0.107785
-0.0770718
-0.0527746
-0.0335727
-0.0184462
-0.00664343
0.00254529
0.00761526
0.01351
-0.011725
6.23896
5.44919
4.2403
2.98901
1.84759
0.873908
0.127755
-0.37895
-0.677331
-0.821365
-0.861182
-0.836035
-0.774265
-0.695052
-0.610564
-0.527861
-0.450742
-0.381078
-0.319487
-0.265842
-0.219614
-0.180012
-0.146196
-0.117243
-0.0923044
-0.0706058
-0.0508207
-0.0349796
-0.01302
-0.0307627
6.45323
5.77259
4.81352
3.79194
2.76565
1.80224
0.979035
0.334647
-0.128954
-0.436796
-0.62141
-0.714325
-0.742846
-0.728653
-0.688
-0.632503
-0.570161
-0.506321
-0.444377
-0.38631
-0.333144
-0.285193
-0.24234
-0.204102
-0.16977
-0.138584
-0.108409
-0.0815348
-0.0428129
-0.0459156
6.48814
6.09923
5.43916
4.60749
3.67075
2.71071
1.81304
1.03978
0.420783
-0.0432256
-0.36818
-0.577426
-0.696113
-0.74768
-0.752034
-0.72503
-0.678722
-0.621916
-0.56078
-0.499427
-0.440433
-0.385241
-0.334437
-0.288056
-0.245489
-0.206074
-0.166973
-0.129758
-0.0761134
-0.0601702
6.44611
6.27311
5.8336
5.15404
4.3133
3.39208
2.47267
1.62872
0.908636
0.332347
-0.101495
-0.407162
-0.605452
-0.718989
-0.769059
-0.773943
-0.748414
-0.703869
-0.648729
-0.588945
-0.528512
-0.469954
-0.414622
-0.36312
-0.315136
-0.270182
-0.225245
-0.18113
-0.116791
-0.0824302
27.9743
26.8097
25.0061
21.2737
12.7269
-3.8405
-12.8288
-15.6143
-11.7348
-8.01128
-5.24376
-3.21209
-1.78607
-0.817375
-0.174277
0.238188
0.489001
0.62234
0.67611
0.699751
0.675947
0.636528
0.586645
0.531564
0.475064
0.419285
0.362616
0.314769
0.229376
0.337364
26.2035
25.0311
23.0424
18.8785
10.7622
-3.7298
-11.6343
-14.1144
-10.8772
-7.50225
-4.92173
-3.01687
-1.67235
-0.755569
-0.146104
0.245225
0.483078
0.609187
0.659207
0.68144
0.659261
0.620782
0.572292
0.518769
0.463802
0.409339
0.354415
0.305549
0.232464
0.306598
23.3487
22.2253
20.2934
16.0149
8.23649
-2.59679
-10.1503
-11.8482
-9.46085
-6.69089
-4.44074
-2.74101
-1.52523
-0.688431
-0.128586
0.233022
0.454157
0.572367
0.619642
0.640849
0.622033
0.586843
0.541882
0.491967
0.440394
0.388966
0.336952
0.289521
0.221484
0.282701
19.8422
18.8286
16.9382
12.903
6.09303
-2.25213
-8.11122
-9.44773
-7.85753
-5.7287
-3.87178
-2.42245
-1.36414
-0.624876
-0.124618
0.202056
0.404301
0.514586
0.560311
0.58136
0.567483
0.537338
0.497603
0.45297
0.406356
0.359395
0.311498
0.266844
0.203574
0.252193
16.2628
15.4369
13.7616
10.0663
4.47057
-1.94807
-6.16783
-7.28387
-6.30164
-4.7485
-3.28816
-2.10215
-1.21149
-0.575856
-0.138769
0.151333
0.334352
0.437636
0.484124
0.506301
0.498136
0.474437
0.441433
0.403512
0.363211
0.32198
0.279327
0.238562
0.181004
0.215441
13.0022
12.3675
10.9726
7.6841
3.15042
-1.64582
-4.64474
-5.51233
-4.91281
-3.81661
-2.71459
-1.78114
-1.05801
-0.528063
-0.15656
0.0948174
0.256892
0.352251
0.402083
0.419428
0.416928
0.400744
0.375698
0.345619
0.312716
0.278263
0.241854
0.205973
0.155174
0.174958
10.2917
9.80674
8.6555
5.81417
2.22109
-1.29327
-3.49926
-4.20692
-3.86379
-3.10563
-2.28743
-1.56055
-0.976009
-0.533909
-0.215298
0.0062615
0.154007
0.245885
0.298364
0.321611
0.326731
0.319085
0.302907
0.281475
0.256764
0.229904
0.200582
0.170484
0.127502
0.133185
8.23174
7.83543
6.83525
4.40857
1.57413
-1.01269
-2.64024
-3.21422
-3.03671
-2.52391
-1.92879
-1.37484
-0.911751
-0.550136
-0.280772
-0.0874685
0.0464368
0.134516
0.189074
0.21875
0.231561
0.232622
0.225586
0.213187
0.197154
0.178466
0.156918
0.133424
0.0993166
0.0924514
6.82303
6.44939
5.49509
3.41721
1.1749
-0.751504
-1.96666
-2.44018
-2.37594
-2.04549
-1.62707
-1.21718
-0.860444
-0.571559
-0.348163
-0.181853
-0.0616784
0.0220388
0.0781395
0.113455
0.133846
0.143571
0.14568
0.142441
0.135335
0.12521
0.111997
0.0958736
0.0717169
0.054832
6.0017
5.59194
4.60066
2.80878
1.02049
-0.445949
-1.38569
-1.80098
-1.82817
-1.64309
-1.36997
-1.08242
-0.819255
-0.595907
-0.415444
-0.275039
-0.168455
-0.0895306
-0.0323896
0.00786488
0.0354047
0.0534859
0.0645333
0.0703797
0.072273
0.0709528
0.0665374
0.0585138
0.0454434
0.0219801
5.66231
5.1759
4.11531
2.57012
1.12499
-0.0375004
-0.817034
-1.22281
-1.34159
-1.28535
-1.13991
-0.961373
-0.782726
-0.620083
-0.480651
-0.365568
-0.272688
-0.199078
-0.141509
-0.0969903
-0.0628491
-0.036837
-0.0171759
-0.00244513
0.00838728
0.0159906
0.0207524
0.0215222
0.0207573
-0.00500334
5.67108
5.09942
4.00807
2.69397
1.49857
0.51337
-0.203362
-0.649827
-0.8739
-0.944311
-0.920006
-0.844248
-0.745683
-0.641726
-0.542514
-0.452737
-0.373964
-0.306292
-0.248959
-0.200834
-0.160662
-0.127193
-0.099309
-0.0759861
-0.056388
-0.0398756
-0.0256682
-0.0154887
-0.00268176
-0.0256905
5.87244
5.259
4.24338
3.14793
2.11754
1.20864
0.478831
-0.0513748
-0.398244
-0.600328
-0.697459
-0.723427
-0.704321
-0.658943
-0.600171
-0.53626
-0.472286
-0.41128
-0.354879
-0.303796
-0.258174
-0.217755
-0.182096
-0.150568
-0.122512
-0.0972933
-0.0735724
-0.0535464
-0.0260431
-0.040553
6.08384
5.54624
4.72903
3.82507
2.89471
2.0006
1.21388
0.575254
0.094319
-0.244229