/*--------------------------------*- C++ -*----------------------------------*\
  =========                 |
  \\      /  F ield         | OpenFOAM: The Open Source CFD Toolbox
   \\    /   O peration     | Website:  https://openfoam.org
    \\  /    A nd           | Version:  10
     \\/     M anipulation  |
\*---------------------------------------------------------------------------*/
FoamFile
{
    format      ascii;
    class       surfaceScalarField;
    location    "600";
    object      phi;
}
// * * * * * * * * * * * * * * * * * * * * * * * * * * * * * * * * * * * * * //

dimensions      [0 3 -1 0 0 0 0];

internalField   nonuniform List<scalar> 
81522
(
525.511
8.66131
8.65382
113.535
32.0202
31.9818
115.4
115.439
117.135
94.0557
9.7029
9.77646
-14.8846
3.26392
3.27187
2.04066
2.10886
2.10942
2.08987
1.14569
-0.669132
-0.76714
0.29058
-6.41016
-1.00465
-1.05533
8.47014
-13.8975
15.4273
-0.756717
-0.773093
-19.2529
20.3049
-0.523105
-0.528848
-22.9229
23.6446
-0.359671
-0.361939
-25.4549
25.9593
-0.251706
-0.252725
-27.2402
27.6018
-0.180575
-0.181088
-28.5318
28.7979
-0.132896
-0.133181
-29.4904
29.6909
-0.100192
-0.100365
-30.2216
122.122
-0.593494
-0.594351
-30.2336
-30.2336
-30.2455
500.239
-3.42382
-3.42812
-123.202
-123.348
-123.348
-123.49
505.829
-2.79345
-2.79676
510.416
-2.29178
-2.29441
514.22
-1.90127
-1.90343
517.41
-1.59381
-1.59562
520.109
-1.34867
-1.35023
522.411
-1.15043
-1.15179
524.388
-0.987866
-0.989065
526.082
-0.846666
-0.847728
527.558
-0.737326
-0.738267
-0.579512
-0.580333
530.005
14.3329
7.51226
118.767
50.4795
26.8573
122.375
120.192
123.353
-17.8715
104.803
23.5819
8.25349
-11.2736
-19.7676
13.0645
2.77031
3.87599
3.73611
3.67771
3.91659
-2.74529
3.57331
-4.93566
-0.90922
5.01686
-11.2088
3.84033
-0.950924
-4.60675
12.9261
2.75218
-17.174
18.3404
-3.24454
-0.673973
1.90416
-21.2642
22.0784
-2.25343
-0.464977
1.3271
-24.1429
24.7241
-1.58378
-0.324527
0.942465
-26.2115
26.6342
-1.13414
-0.231087
0.684615
-27.726
28.0394
-0.829626
-0.168326
0.508843
-28.856
29.0926
-0.620058
-0.12541
0.386486
-29.7149
29.897
-0.473116
-0.0954707
-30.391
1.1566
122.783
-1.67488
-0.566153
-30.4472
-30.4022
-30.4581
502.505
-6.36552
-3.25064
-123.811
-124.213
-123.947
-124.341
507.609
-5.2309
-2.66685
511.843
-4.32643
-2.19879
515.384
-3.61079
-1.83183
518.374
-3.04223
-1.54115
520.919
-2.58567
-1.30816
523.101
-2.2141
-1.11893
524.983
-1.90665
-0.963128
526.607
-1.6425
-0.827644
528.011
-1.41773
-0.723309
-1.16686
-0.566001
535.717
16.4875
5.97408
126.161
54.3909
19.9355
129.16
126.884
129.665
-26.2503
119.696
26.8791
5.83616
-14.857
-27.2568
25.6802
14.6792
1.75446
-0.818638
0.535293
0.416757
-0.133437
-16.7345
8.27158
-8.46185
-0.971726
17.8965
5.78046
-20.3854
-0.671387
21.0666
-5.79024
4.04009
-22.8662
23.402
-4.0987
-0.477202
2.89191
-24.846
25.2777
-2.97894
-0.34471
2.10584
-26.4409
26.788
-2.20038
-0.252565
1.55731
-27.721
27.9989
-1.64742
-0.187735
1.17013
-28.745
28.9671
-1.25056
-0.141679
0.893546
-29.5639
29.7419
-0.962906
-0.108589
0.693505
-30.2213
30.3648
-0.752521
-0.0845461
-30.7695
2.11501
124.147
-2.48848
-0.508463
-30.8539
-30.779
-30.863
506.565
-8.51481
-2.93962
-125.031
-125.595
-125.148
-125.702
510.85
-7.07964
-2.43576
514.471
-5.92036
-2.02684
517.549
-4.98706
-1.70182
520.182
-4.23457
-1.44129
522.45
-3.62317
-1.23045
524.415
-3.12066
-1.05782
526.124
-2.70094
-0.914687
527.61
-2.33927
-0.789693
528.909
-2.02388
-0.693037
-1.69198
-0.545167
540.795
16.2569
4.56816
530.574
50.3561
14.2556
129.484
97.8764
28.7373
-26.3606
-35.7378
-25.5441
-34.4016
132.954
130.195
133.372
-53.1727
130.866
44.5134
7.27736
-22.9756
-33.8876
35.8779
19.2319
1.75351
-3.86711
0.740748
3.63886
-0.518113
-2.49085
2.86812
-2.35407
1.97617
11.3815
-28.2325
27.6571
-9.97933
-0.82666
7.24401
-26.9407
-0.547611
26.8714
-6.62705
5.16352
-26.9422
27.0289
-4.85425
-0.395996
3.87645
-27.3974
27.5436
-3.72155
-0.301066
2.96817
-28.0231
28.1889
-2.90119
-0.232778
2.29451
-28.6894
28.853
-2.27703
-0.181164
1.78568
-29.329
29.4801
-1.79506
-0.141746
1.39987
-29.9104
30.0447
-1.42253
-0.111624
1.10669
-30.4223
30.539
-1.13475
-0.0885903
0.883719
-30.8647
30.965
-0.913003
-0.0709582
-31.2639
2.76643
125.91
-2.98016
-0.436069
-31.3589
-31.2715
-31.366
511.723
-9.8042
-2.55685
-126.609
-127.239
-126.705
-127.325
515.054
-8.26479
-2.14557
517.941
-7.00093
-1.80698
520.451
-5.96344
-1.53304
522.638
-5.1121
-1.30992
524.552
-4.41029
-1.12703
526.234
-3.8265
-0.975674
527.716
-3.33373
-0.849073
529.02
-2.90635
-0.737782
530.177
-2.5287
-0.651262
-2.13679
-0.517473
544.462
14.6295
3.36033
541.746
43.2199
9.85166
546.246
75.7377
17.6388
142.356
109.3
6.91806
-37.0427
-43.4958
-35.6148
-41.7389
141.821
142.315
141.795
7.99175
5.6655
5.97634
-49.1482
148.501
38.0641
4.93876
-11.0446
-39.3757
40.5572
0.621982
9.24099
-0.817828
-42.4449
41.7133
0.0630873
1.48638
6.08727
-37.5415
140.741
-13.7746
-2.15841
6.37371
5.96005
6.27836
-37.5715
-37.2027
-37.192
6.03826
-133.896
129.323
-16.6394
-2.2675
5.96346
5.77159
5.7069
4.81387
-126.252
124.365
-14.9041
-1.92804
4.58574
4.76979
4.54929
3.8629
-123.15
122.46
-12.7921
-1.60013
3.70437
3.83576
3.67934
3.15569
-122.09
121.987
-10.9072
-1.33281
3.03336
3.1368
3.01632
2.58979
-122.063
122.28
-9.24271
-1.11065
2.491
2.57639
2.47877
2.12283
-122.604
122.998
-7.78264
-0.92257
2.04184
2.1133
2.03307
1.73673
-123.452
123.93
-6.51675
-0.763808
1.67091
1.72997
1.66464
1.42041
-124.437
124.94
-5.43816
-0.631375
1.36733
1.41559
1.36283
1.16354
-125.452
125.945
-4.53253
-0.522184
1.12087
1.16009
1.11762
0.956271
-126.434
126.896
-3.78222
-0.433212
0.92272
0.95378
0.920329
3.10364
-127.355
127.788
-3.17505
-0.361983
517.321
-10.3279
-2.15793
-128.31
-128.937
-128.386
-129.007
519.729
-8.83626
-1.83652
521.881
-7.58471
-1.56801
523.803
-6.53938
-1.34631
525.518
-5.66491
-1.16229
527.05
-4.9324
-1.00922
528.419
-4.31503
-0.880985
529.646
-3.78819
-0.772685
530.744
-3.32775
-0.676773
531.735
-2.91702
-0.601869
-2.4892
-0.484392
546.669
12.3644
2.40939
547.388
35.6409
6.85982
552.707
58.9774
11.4417
567.673
78.5967
15.7373
147.608
81.0519
15.9617
-30.1409
-28.7
-29.2868
-27.8937
145.902
147.4
145.77
-23.5071
149.914
19.3094
1.89127
-6.59961
-150.398
148.877
7.48925
0.631599
557.319
-6.84443
-2.90581
7.26322
9.59282
6.7325
9.07658
-145.757
-144.492
-145.604
-144.38
538.968
-21.4623
-5.35671
11.5346
11.4863
11.0522
11.0965
527.183
-27.1593
-5.92195
11.6401
11.1092
11.2922
10.8248
520.203
-28.3067
-5.76328
10.6668
10.0902
10.4155
9.87705
516.393
-27.3104
-5.33027
9.47112
8.93081
9.28281
8.76616
514.693
-25.3398
-4.80105
8.27496
7.78077
8.12956
7.65564
514.394
-22.937
-4.25263
7.14429
6.70321
7.03364
6.6076
515.022
-20.4269
-3.72166
6.11175
5.72684
6.02806
5.6542
516.228
-17.9813
-3.22973
5.19563
4.86582
5.13254
4.81076
517.763
-15.7033
-2.78783
4.40033
4.12237
4.35279
4.08056
519.453
-13.648
-2.40084
3.72157
3.49156
3.68565
3.4599
521.202
-11.829
-2.06586
3.15194
2.95313
3.12288
2.91835
522.893
-10.2396
-1.77981
524.49
-8.89535
-1.53801
525.98
-7.74204
-1.33257
527.357
-6.75751
-1.15871
528.621
-5.91734
-1.0115
529.778
-5.20199
-0.887125
530.835
-4.59105
-0.781597
531.803
-4.06417
-0.69163
532.687
-3.60035
-0.611403
533.502
-3.18365
-0.548561
-2.74414
-0.448304
547.821
9.97828
1.69291
550.109
28.5992
4.75413
555.517
45.9482
7.62086
565.208
59.0289
9.87633
575.776
60.5643
9.91963
579.413
47.0474
7.27032
-16.3236
-12.8702
-16.0506
-12.7094
573.492
25.5986
3.49393
-7.5854
-3.97074
-7.56025
-4.05524
561.407
5.27103
-0.0304442
549.816
-7.85281
-2.01944
540.737
-15.117
-2.96294
534.304
-18.5629
-3.31033
530.022
-19.6971
-3.33171
527.36
-19.4951
-3.18272
525.888
-18.5152
-2.94979
525.278
-17.1373
-2.67916
525.276
-15.5803
-2.39966
525.69
-13.9886
-2.12874
526.373
-12.4541
-1.87677
527.214
-11.0217
-1.64803
528.142
-9.72224
-1.4454
529.088
-8.57264
-1.26897
530.023
-7.5616
-1.11514
530.927
-6.67913
-0.982014
531.788
-5.91126
-0.867122
532.601
-5.24707
-0.768519
533.367
-4.67265
-0.683824
534.086
-4.17264
-0.611007
534.762
-3.73006
-0.545743
535.403
-3.33084
-0.49458
-2.90178
-0.411457
548.299
7.75443
1.17193
551.114
22.5011
3.28323
556.019
35.8868
5.15629
563.026
45.5246
6.49691
569.845
47.1656
6.57992
572.604
39.086
5.20252
569.807
25.2976
3.09819
563.084
10.9944
0.999188
555.541
0.143575
-0.453054
548.839
-7.07322
-1.34189
543.483
-11.3855
-1.82186
539.469
-13.6503
-2.03297
536.582
-14.5303
-2.07722
534.621
-14.5323
-2.02177
533.376
-13.9845
-1.90813
532.678
-13.1183
-1.76408
532.388
-12.0907
-1.60775
532.392
-11.0076
-1.45092
532.605
-9.93385
-1.30032
532.958
-8.91443
-1.16127
533.396
-7.975
-1.03542
533.882
-7.12519
-0.922711
534.392
-6.3661
-0.822958
534.909
-5.69267
-0.735168
535.422
-5.10125
-0.65865
535.925
-4.58388
-0.592165
536.417
-4.13025
-0.534611
536.898
-3.72777
-0.482932
537.375
-3.3652
-0.442512
-2.96574
-0.375697
548.369
5.84248
0.804671
551.196
17.3979
2.27605
555.48
28.0387
3.56354
560.89
35.6636
4.45156
565.89
37.582
4.58333
568.315
32.8108
3.85017
567.304
23.6765
2.63262
563.547
13.4284
1.3228
558.704
4.70244
0.284088
553.885
-1.80417
-0.450043
549.647
-6.22603
-0.921992
546.161
-8.96949
-1.1943
543.422
-10.4633
-1.32773
541.341
-11.0848
-1.36735
539.816
-11.1129
-1.34576
538.741
-10.7579
-1.28623
538.026
-10.1707
-1.20501
537.591
-9.45849
-1.11334
537.369
-8.69353
-1.01855
537.307
-7.92686
-0.925945
537.361
-7.18986
-0.83849
537.496
-6.50242
-0.757785
537.687
-5.87342
-0.684561
537.918
-5.30448
-0.618785
538.175
-4.79751
-0.560562
538.45
-4.34959
-0.509434
538.74
-3.95511
-0.46496
539.043
-3.60597
-0.425155
539.367
-3.29498
-0.394217
-2.94134
-0.34242
548.243
4.24563
0.552303
550.82
13.2248
1.59613
554.519
21.8156
2.52391
558.929
28.0854
3.16836
562.994
30.1837
3.33304
565.374
27.4806
2.95056
565.458
21.3701
2.22166
563.555
13.9558
1.3763
560.541
7.08503
0.631213
557.183
1.50532
0.0488101
553.947
-2.62163
-0.369161
551.062
-5.43809
-0.646474
548.619
-7.205
-0.814758
546.613
-8.17629
-0.902972
545.01
-8.57451
-0.934599
543.756
-8.57667
-0.927707
542.798
-8.31737
-0.895743
542.085
-7.8965
-0.848551
541.57
-7.38549
-0.793084
541.214
-6.83625
-0.734441
540.982
-6.28211
-0.675908
540.847
-5.74747
-0.619753
540.787
-5.24572
-0.567267
540.784
-4.7829
-0.519016
540.827
-4.36473
-0.475599
540.907
-3.99226
-0.437088
541.019
-3.66406
-0.403495
541.163
-3.37639
-0.373749
541.347
-3.12785
-0.35089
-2.83393
-0.312582
548.002
2.96414
0.382384
550.233
9.85162
1.14217
553.433
16.7734
1.84219
557.209
21.9632
2.346
560.787
24.0797
2.52648
563.245
22.6832
2.33963
564.091
18.629
1.89457
563.419
13.2957
1.3327
561.72
7.99136
0.792722
559.482
3.40758
0.335077
557.092
-0.209207
-0.0218857
554.789
-2.85377
-0.281508
552.693
-4.65088
-0.458447
550.856
-5.76932
-0.569927
549.287
-6.37356
-0.632038
547.973
-6.60434
-0.658087
546.889
-6.57471
-0.658707
546.007
-6.37212
-0.642143
545.298
-6.06184
-0.614581
544.735
-5.69268
-0.580746
544.294
-5.297
-0.543858
543.953
-4.90003
-0.506409
543.694
-4.51704
-0.469992
543.503
-4.15649
-0.435527
543.369
-3.82636
-0.40391
543.282
-3.5305
-0.375576
543.24
-3.2711
-0.350821
543.242
-3.04839
-0.329379
543.296
-2.86922
-0.313163
-2.64738
-0.286755
547.706
1.96082
0.268622
549.597
7.11837
0.842424
552.399
12.5736
1.398
555.773
16.7738
1.81556
559.109
18.7407
2.00229
561.702
18.1635
1.92691
563.122
15.557
1.6523
563.325
11.8234
1.26942
562.578
7.86666
0.871061
561.223
4.25486
0.508552
559.546
1.26084
0.206281
557.765
-1.04278
-0.0298359
556.019
-2.70045
-0.20424
554.388
-3.81229
-0.326236
552.913
-4.49183
-0.406116
551.606
-4.84472
-0.453349
550.468
-4.96051
-0.476117
549.488
-4.91124
-0.481154
548.653
-4.7526
-0.473804
547.946
-4.5273
-0.458326
547.351
-4.26452
-0.437774
546.854
-3.9877
-0.414661
546.439
-3.71193
-0.390719
546.096
-3.44649
-0.36708
545.815
-3.20018
-0.344816
545.588
-2.97853
-0.324612
545.41
-2.78669
-0.306918
545.282
-2.62801
-0.292187
545.214
-2.52058
-0.28122
-2.38217
-0.265192
547.414
1.19255
0.190756
548.989
4.89716
0.647005
551.488
8.96073
1.11316
554.623
12.1615
1.47787
557.861
13.8352
1.66709
560.613
13.7531
1.65828
562.483
12.1975
1.48996
563.356
9.72763
1.22285
563.355
6.94587
0.92167
562.7
4.28036
0.629341
561.617
1.97311
0.370447
560.297
0.121952
0.155784
558.88
-1.27079
-0.0132297
557.464
-2.25579
-0.140399
556.109
-2.9046
-0.231744
554.848
-3.29051
-0.293762
553.7
-3.47931
-0.332619
552.668
-3.52598
-0.353752
551.752
-3.4744
-0.361735
550.944
-3.359
-0.360376
550.236
-3.20392
-0.352551
549.618
-3.02896
-0.340718
549.08
-2.84736
-0.326673
548.613
-2.66787
-0.311683
548.209
-2.49885
-0.296924
547.86
-2.34636
-0.283268
547.562
-2.21761
-0.271203
547.313
-2.11752
-0.261844
547.125
-2.0777
-0.254814
-2.03225
-0.247851
547.168
0.612931
0.132215
548.495
3.04816
0.522379
550.792
5.723
0.939881
553.785
7.89418
1.27485
556.999
9.15338
1.4681
559.918
9.33042
1.50343
562.167
8.54341
1.4052
563.579
7.10011
1.21524
564.182
5.36154
0.980856
564.113
3.61226
0.737999
563.541
2.03466
0.510379
562.631
0.719961
0.311219
561.523
-0.307842
0.145755
560.32
-1.0666
0.0139862
559.096
-1.59453
-0.0869759
557.903
-1.93595
-0.161321
556.771
-2.13338
-0.213606
555.717
-2.22389
-0.248203
554.75
-2.23797
-0.269041
553.87
-2.2001
-0.279552
553.077
-2.12789
-0.282459
552.364
-2.03596
-0.28016
551.725
-1.93438
-0.274494
551.154
-1.8302
-0.266834
550.644
-1.73013
-0.258423
550.188
-1.63953
-0.250296
549.779
-1.56644
-0.242881
549.415
-1.51485
-0.237915
549.098
-1.52738
-0.233616
-1.57672
-0.234567
547.014
0.206255
0.0766991
548.162
1.44564
0.455208
550.299
2.7335
0.852729
553.173
3.84334
1.17597
556.384
4.56123
1.3811
559.479
4.78222
1.45389
562.086
4.52836
1.40777
563.993
3.92038
1.27245
565.152
3.11874
1.08404
565.627
2.26363
0.873877
565.54
1.45586
0.665248
565.032
0.754581
0.473241
564.235
0.184086
0.305965
563.257
-0.25525
0.166339
562.185
-0.576367
0.0538868
561.081
-0.79817
-0.0337732
559.988
-0.940794
-0.0999288
558.935
-1.02284
-0.148124
557.939
-1.06018
-0.181785
557.009
-1.06591
-0.204055
556.148
-1.04972
-0.217561
555.357
-1.01974
-0.224669
554.632
-0.981721
-0.227259
553.968
-0.939899
-0.226824
553.361
-0.898188
-0.224643
552.803
-0.859901
-0.221916
552.287
-0.83133
-0.218988
551.805
-0.814399
-0.218035
551.339
-0.84629
-0.215695
-0.960211
-0.223486
546.951
0.0347484
547.971
0.42527
549.879
0.825854
552.559
1.16296
555.717
1.40304
558.971
1.52852
561.958
1.54196
564.416
1.46187
566.219
1.31566
567.352
1.1312
567.875
0.932196
567.893
0.736413
567.522
0.555573
566.871
0.396087
566.034
0.260453
565.087
0.148554
564.088
0.0586235
563.077
-0.0119518
562.083
-0.0660894
561.123
-0.106712
560.21
-0.136463
559.348
-0.157768
558.539
-0.172668
557.782
-0.182862
557.074
-0.189794
556.409
-0.194869
555.776
-0.19849
555.165
-0.203203
554.523
-0.204271
-0.216374
530.001
7.55792
14.2988
118.729
27.0518
50.395
120.196
122.309
123.301
-17.886
104.736
8.32259
23.5573
-11.2694
-19.7584
2.80533
13.1492
3.90164
3.64924
3.70288
3.81953
-2.83371
3.99628
-0.847197
-5.45758
5.1422
-11.3033
3.99799
-0.923787
-4.77134
13.0004
2.80226
-17.2065
18.3649
-0.663119
-3.29752
1.9226
-21.2748
22.0866
-0.460697
-2.27367
1.33483
-24.1468
24.7272
-0.322689
-1.59256
0.946081
-26.2131
26.6355
-0.230213
-1.13834
0.686487
-27.7268
28.04
-0.167868
-0.831842
0.509907
-28.8564
29.093
-0.125148
-0.621332
0.387141
-29.7152
29.8972
-0.0953075
-0.473908
-30.3912
1.15825
122.784
-0.565337
-1.67721
-30.4024
-30.4474
-30.4583
502.507
-3.24651
-6.37324
-123.812
-123.948
-124.214
-124.342
507.611
-2.66363
-5.23695
511.844
-2.19622
-4.3313
515.385
-1.82971
-3.61483
518.374
-1.53936
-3.04565
520.919
-1.30662
-2.58863
523.102
-1.11759
-2.2167
524.984
-0.961942
-1.90896
526.607
-0.826593
-1.64456
528.011
-0.722379
-1.41956
-0.565189
-1.16846
533.361
12.7248
12.6707
122.576
43.6936
43.5053
125.2
125.147
127.149
-15.1618
-15.2852
112.618
20.2825
20.1222
-9.21161
-9.62655
-23.4937
20.3558
11.151
10.8252
-8.12227
4.07003
4.00891
-5.19209
-5.19523
10.4306
-15.4216
3.49762
3.42636
-4.06083
-4.12882
16.6872
2.43889
2.40634
-19.7989
20.6645
-2.83846
-2.87245
1.69957
1.68563
-22.8814
23.514
-2.00124
-2.01657
1.2035
1.1972
-25.1549
25.6275
-1.43307
-1.44024
0.868701
0.865587
-26.8609
27.2182
-1.04399
-1.04762
0.639954
0.638275
-28.1558
28.4289
-0.774696
-0.776686
0.481086
0.480104
-29.1498
29.3611
-0.585671
-0.586849
0.368734
0.368115
-29.9223
30.0881
-0.450947
-0.451695
-30.5489
1.10379
1.10222
123.398
-1.59827
-1.6005
-30.6018
-30.6018
-30.6531
504.618
-6.05035
-6.05777
-124.379
-124.757
-124.757
-125.114
509.286
-4.99631
-5.00218
513.199
-4.15156
-4.15632
516.498
-3.47845
-3.48242
519.302
-2.94052
-2.9439
521.703
-2.5065
-2.50943
523.773
-2.15184
-2.15441
525.565
-1.85728
-1.85956
527.12
-1.60387
-1.60591
528.449
-1.38647
-1.38828
-1.14668
-1.14827
537.797
14.9563
10.3192
128.106
48.2303
33.5035
130.483
129.559
131.544
-22.8634
-10.8652
123.361
23.7328
14.74
-6.26937
-13.043
51.75
32.5669
27.6685
29.1863
28.3532
29.8635
-118.619
-15.4887
-12.2246
-14.4054
-7.18461
-5.55164
-6.60285
-3.73551
-7.55393
-6.76491
7.28452
7.0578
3.71556
1.10978
1.78648
-2.32309
3.08702
-2.60249
-1.05771
-20.4663
7.34842
3.46885
-7.36446
-4.05854
21.072
2.42459
5.02123
-22.5826
-2.85485
23.0369
-5.04525
1.74446
3.56957
-24.3127
24.7107
-3.64249
-2.06951
1.27681
2.60219
-25.8181
26.1599
-2.69414
-1.52661
0.947162
1.92667
-27.1035
27.3915
-2.02126
-1.14053
0.711605
1.44542
-28.1798
28.4185
-1.53362
-0.862113
0.541801
1.09907
-29.0684
29.2644
-1.17715
-0.659713
0.418253
0.847455
-29.7967
29.957
-0.91464
-0.511375
0.327446
0.662908
-30.3926
30.5241
-0.720085
-0.401761
-30.9038
0.992621
2.02107
124.675
-2.38263
-1.44261
-30.9838
-30.949
-31.0268
508.417
-8.11917
-5.49976
-125.522
-126.057
-125.851
-126.358
512.347
-6.77931
-4.58338
515.701
-5.692
-3.84015
518.573
-4.81138
-3.24098
521.046
-4.09763
-2.75688
523.187
-3.51527
-2.36277
525.05
-3.0349
-2.0383
526.678
-2.63237
-1.76712
528.102
-2.28496
-1.53278
529.333
-1.97994
-1.33062
-1.66317
-1.10671
542.039
14.9305
8.0295
534.344
45.5814
24.5991
131.675
86.2461
47.2585
-23.3639
-31.1878
-21.4352
-28.0691
134.22
132.917
134.821
-45.2794
-13.3875
133.741
38.5792
18.0215
-5.7153
-18.6717
-34.8241
36.4544
16.1036
6.65291
-1.42672
-8.14791
-12.5646
15.4524
5.47112
1.21773
0.840316
4.11192
-9.11394
8.15211
-3.76294
-0.227259
9.56882
-29.8267
2.95153
29.1095
-8.38435
-3.41876
1.97262
6.30387
-28.0574
-2.32453
27.9134
-5.80792
1.45535
4.59557
-27.8042
27.8393
-4.35284
-1.73321
1.12067
3.5091
-28.0665
28.1709
-3.39013
-1.34404
0.875125
2.72588
-28.5353
28.6671
-2.67714
-1.0556
0.687103
2.13279
-29.0772
29.2147
-2.12436
-0.833008
0.541708
1.67709
-29.622
29.7535
-1.69062
-0.659624
0.42935
1.32629
-30.1327
30.2524
-1.3506
-0.524756
0.342599
1.05622
-30.5923
30.6982
-1.08471
-0.420037
0.275575
0.84857
-30.9962
31.0886
-0.8777
-0.338808
-31.371
0.852257
2.65329
126.337
-2.86428
-1.24219
-31.4618
-31.4072
-31.4959
513.274
-9.38096
-4.80544
-127.012
-127.613
-127.283
-127.856
516.339
-7.93604
-4.05338
519.019
-6.74535
-3.43346
521.363
-5.76289
-2.92604
523.419
-4.95311
-2.50994
525.227
-4.28317
-2.16706
526.822
-3.72416
-1.88194
528.234
-3.251
-1.64168
529.484
-2.84007
-1.43278
530.579
-2.4747
-1.25158
-2.10083
-1.04899
545.047
13.5817
6.01392
543.062
39.8614
17.5568
136.399
68.9051
30.6367
137.052
136.606
137.348
-32.3524
138.248
27.6335
9.78764
-42.7138
-9.23612
147.614
33.9494
12.3848
-141.998
-9.57261
-2.17998
-38.8839
39.9258
2.52588
8.18454
-1.38061
-0.29491
-41.0676
40.6064
0.392787
1.74391
4.88279
3.74243
-148.86
141.18
-10.8592
-4.59078
5.21714
4.46993
4.81755
5.19323
-135.038
4.19189
130.798
-14.2866
-5.52026
4.91066
5.0021
4.74925
4.29389
3.62984
-127.847
125.958
-13.2795
-4.94014
4.11183
4.12043
3.95316
3.51993
3.0435
-124.685
123.916
-11.6367
-4.2179
3.38214
3.403
3.27554
2.91231
2.55167
-123.454
123.254
-10.0492
-3.57701
2.80457
2.82938
2.72801
2.4138
2.1371
-123.234
123.355
-8.59887
-3.02174
2.32511
2.35374
2.26955
1.9955
1.78292
-123.587
123.893
-7.29971
-2.53953
1.92166
1.95197
1.88141
1.6448
1.48174
-124.264
124.665
-6.15618
-2.12406
1.58399
1.61333
1.55488
1.35398
1.22892
-125.102
125.541
-5.16953
-1.77143
1.30438
1.33122
1.28331
1.11534
1.01932
-125.996
126.436
-4.33217
-1.47634
1.07508
1.09881
1.05975
0.921127
0.847434
-126.879
127.299
-3.63228
-1.23258
0.889221
0.909021
0.877949
2.98792
-127.721
0.707328
128.123
-3.06222
-1.03456
518.586
-9.91376
-4.07203
-128.63
-129.235
-128.846
-129.428
520.805
-8.50769
-3.48331
522.803
-7.3231
-2.98825
524.599
-6.32976
-2.57557
526.21
-5.49577
-2.23117
527.656
-4.79502
-1.9433
528.955
-4.20288
-1.70117
530.123
-3.69639
-1.49528
531.175
-3.2533
-1.31507
532.112
-2.85573
-1.15796
-2.44773
-0.979943
546.941
11.5767
4.35996
548.019
33.2585
12.3851
553.633
54.4493
20.2833
566.984
71.4077
26.7469
-23.6596
-26.0045
-21.9919
-24.1117
146.919
74.1247
27.6563
-27.3667
-25.9514
-25.3822
-24.0096
145.419
146.388
145.148
-21.4079
-3.6308
149.028
17.9494
4.98041
-6.78808
-1.2541
-149.395
148.16
7.43916
1.83842
558.347
-4.14568
-3.56784
5.63276
7.97138
4.56055
6.77305
-145.352
-144.215
-144.92
-143.99
541.451
-18.1833
-8.39649
9.97212
10.128
8.86785
9.15137
530.181
-24.1368
-9.9214
10.4362
10.0576
9.58923
9.32293
523.243
-25.7119
-9.95942
9.75219
9.27417
9.10929
8.71041
519.276
-25.1453
-9.40506
8.76625
8.29228
8.27224
7.85608
517.331
-23.5465
-8.60239
7.72424
7.28317
7.34068
6.94487
516.755
-21.4758
-7.71311
6.71756
6.31693
6.4212
6.05616
517.102
-19.2453
-6.81993
5.78333
5.42885
5.55588
5.22903
518.041
-17.0331
-5.97132
4.94401
4.63676
4.77026
4.48414
519.335
-14.9462
-5.19458
4.20785
3.94637
4.07531
3.82979
520.811
-13.0446
-4.50316
3.57435
3.35668
3.47301
3.26717
522.378
-11.3509
-3.89426
3.04021
2.84838
2.95902
2.76397
523.912
-9.8548
-3.37279
525.378
-8.58363
-2.92777
526.757
-7.48867
-2.54646
528.041
-6.55055
-2.22156
529.226
-5.7474
-1.94512
530.316
-5.06177
-1.71055
531.318
-4.47492
-1.51087
532.237
-3.96787
-1.33955
533.082
-3.52125
-1.18871
533.853
-3.11774
-1.05671
-2.69874
-0.904595
547.936
9.39836
3.08318
550.369
26.9153
8.66459
555.723
43.0016
13.7145
564.727
54.818
17.4618
574.532
56.4805
17.7593
577.901
44.368
13.2469
-15.3063
-12.1591
-14.6157
-11.6323
572.697
24.9395
6.85501
-7.44467
-4.08614
-7.34741
-4.2182
561.709
6.19129
0.620105
550.911
-6.29255
-3.11254
542.254
-13.44
-5.00275
535.985
-16.9717
-5.78114
531.722
-18.2698
-5.94406
529.002
-18.2458
-5.76323
527.427
-17.4503
-5.40093
526.692
-16.2397
-4.94988
526.559
-14.8318
-4.46748
526.843
-13.3692
-3.98949
527.403
-11.9439
-3.53786
528.131
-10.6039
-3.12266
528.958
-9.37782
-2.75014
529.816
-8.28777
-2.42272
530.674
-7.32546
-2.136
531.511
-6.48269
-1.88646
532.313
-5.74724
-1.67008
533.076
-5.10963
-1.48368
533.798
-4.55721
-1.32314
534.479
-4.07562
-1.1843
535.123
-3.64932
-1.06155
535.727
-3.26267
-0.954022
-2.85391
-0.827557
548.329
7.34132
2.14637
551.172
21.3094
6.04533
555.989
33.913
9.42873
562.647
42.8759
11.7804
569.121
44.5471
12.0389
571.779
37.2417
9.67125
569.307
24.5305
5.97919
563.104
11.1947
2.19854
556.035
0.846219
-0.522676
549.629
-6.14471
-2.23106
544.436
-10.4069
-3.19425
540.497
-12.7086
-3.65472
537.629
-13.6633
-3.79197
535.645
-13.7578
-3.73041
534.354
-13.3066
-3.54995
533.596
-12.5336
-3.30418
533.239
-11.5915
-3.02864
533.176
-10.5846
-2.74678
533.322
-9.57715
-2.47273
533.612
-8.61406
-2.21594
533.993
-7.72165
-1.98168
534.427
-6.91125
-1.77098
534.89
-6.18505
-1.58349
535.364
-5.5391
-1.41779
535.839
-4.97066
-1.27288
536.309
-4.47267
-1.14669
536.771
-4.03555
-1.03686
537.227
-3.64788
-0.939673
537.673
-3.2968
-0.854832
-2.91673
-0.752658
548.368
5.54798
1.48336
551.164
16.564
4.2257
555.371
26.6735
6.59603
560.585
33.8988
8.21388
565.404
35.8007
8.51095
567.792
31.4549
7.24959
566.938
22.9472
5.06912
563.467
13.3079
2.6808
558.902
4.96982
0.725987
554.294
-1.31258
-0.674494
550.205
-5.64099
-1.59853
546.798
-8.34806
-2.14855
544.102
-9.86266
-2.43219
542.035
-10.5245
-2.53371
540.502
-10.6047
-2.51443
539.406
-10.3056
-2.41875
538.662
-9.77367
-2.27798
538.191
-9.11329
-2.11401
537.932
-8.39544
-1.94145
537.833
-7.67046
-1.77062
537.85
-6.9695
-1.60781
537.951
-6.31307
-1.4567
538.111
-5.71059
-1.31887
538.312
-5.1643
-1.19456
538.542
-4.67663
-1.08418
538.792
-4.24528
-0.987077
539.059
-3.86511
-0.902191
539.342
-3.52902
-0.827352
539.642
-3.22811
-0.762729
-2.89238
-0.6828
548.214
4.04606
1.02344
550.76
12.6324
2.98108
554.393
20.8493
4.71558
558.685
26.8531
5.92172
562.645
28.9157
6.2578
565.003
26.4497
5.59788
565.174
20.7199
4.27811
563.433
13.7051
2.72002
560.592
7.12424
1.31801
557.39
1.73307
0.20535
554.258
-2.27327
-0.605119
551.456
-5.04133
-1.15158
549.064
-6.79411
-1.49059
547.087
-7.77539
-1.67541
545.495
-8.19764
-1.75004
544.242
-8.23113
-1.74874
543.276
-8.00602
-1.69727
542.548
-7.61938
-1.61462
542.015
-7.141
-1.51442
541.638
-6.62177
-1.40666
541.385
-6.09451
-1.29785
541.229
-5.58364
-1.19271
541.148
-5.1027
-1.0939
541.125
-4.65803
-1.00268
541.149
-4.25563
-0.920354
541.211
-3.89689
-0.847219
541.306
-3.5807
-0.783149
541.434
-3.30413
-0.72723
541.6
-3.06408
-0.680035
-2.78613
-0.619968
547.978
2.82983
0.710725
550.178
9.42943
2.14573
553.317
16.0838
3.46826
557.013
21.0786
4.42482
560.52
23.1514
4.78316
562.959
21.887
4.46342
563.853
18.0699
3.65115
563.282
13.0002
2.60841
561.691
7.91845
1.58915
559.556
3.48892
0.714635
557.258
-0.023815
0.0258015
555.025
-2.60814
-0.480922
552.98
-4.37679
-0.830641
551.177
-5.48827
-1.05479
549.63
-6.09936
-1.18335
548.328
-6.34532
-1.24151
547.248
-6.33535
-1.24955
546.364
-6.1543
-1.22334
545.649
-5.86579
-1.17489
545.078
-5.51752
-1.1134
544.626
-5.14125
-1.04519
544.273
-4.76193
-0.975276
544.002
-4.39475
-0.906827
543.798
-4.04829
-0.841743
543.651
-3.73061
-0.781845
543.553
-3.44576
-0.728086
543.498
-3.19607
-0.680979
543.488
-2.98244
-0.640625
543.529
-2.81006
-0.607988
-2.60183
-0.565336
547.686
1.87291
0.499895
549.54
6.82615
1.59131
552.294
12.0798
2.64856
555.606
16.1345
3.44743
558.889
18.0566
3.81394
561.461
17.5508
3.69152
562.903
15.0922
3.18823
563.164
11.5347
2.47375
562.498
7.73623
1.71933
561.219
4.24917
1.02667
559.613
1.34427
0.444212
557.891
-0.901588
-0.0145142
556.193
-2.52607
-0.356211
554.598
-3.62254
-0.597549
553.149
-4.29895
-0.757593
551.862
-4.65673
-0.854214
550.735
-4.78231
-0.902995
549.762
-4.74551
-0.916847
548.929
-4.60054
-0.90611
548.222
-4.38905
-0.879051
547.624
-4.13963
-0.841627
547.121
-3.87533
-0.798811
546.701
-3.61106
-0.754021
546.351
-3.35608
-0.709523
546.062
-3.11918
-0.667456
545.827
-2.90598
-0.629203
545.642
-2.72162
-0.595693
545.505
-2.56999
-0.567829
545.428
-2.46765
-0.546952
-2.34008
-0.519379
547.4
1.13723
0.354651
548.948
4.69732
1.22835
551.405
8.61452
2.12146
554.487
11.7082
2.82167
557.678
13.3412
3.19121
560.405
13.2944
3.18812
562.28
11.8283
2.87929
563.186
9.47302
2.37855
563.235
6.80183
1.80662
562.637
4.22937
1.24718
561.61
1.99316
0.748385
560.34
0.191751
0.33222
558.968
-1.16912
0.0025869
557.588
-2.13603
-0.246955
556.261
-2.77672
-0.42746
555.023
-3.16144
-0.551143
553.892
-3.35358
-0.629727
552.872
-3.4064
-0.673618
551.964
-3.36254
-0.691644
551.162
-3.25552
-0.691187
550.456
-3.10897
-0.677836
549.839
-2.94228
-0.656413
549.3
-2.76849
-0.630441
548.831
-2.59628
-0.602427
548.423
-2.43391
-0.574698
548.071
-2.28748
-0.548941
547.768
-2.16415
-0.526313
547.514
-2.06909
-0.508309
547.321
-2.03286
-0.496556
-1.99506
-0.481972
547.159
0.581858
0.24443
548.463
2.91938
0.996634
550.722
5.49515
1.80046
553.667
7.59291
2.44504
556.835
8.81924
2.8221
559.723
9.00988
2.89988
561.963
8.27215
2.72052
563.391
6.89799
2.363
564.026
5.23094
1.91634
563.998
3.54557
1.45037
563.47
2.01964
1.01127
562.604
0.743387
0.625261
561.536
-0.257926
0.303231
560.368
-0.999925
0.0457816
559.175
-1.5185
-0.152267
558.007
-1.85592
-0.298763
556.895
-2.05305
-0.402374
555.858
-2.14569
-0.47149
554.903
-2.16339
-0.513693
554.034
-2.12996
-0.535631
553.247
-2.06256
-0.542597
552.54
-1.9755
-0.539273
551.905
-1.87867
-0.529248
551.336
-1.77902
-0.515222
550.826
-1.68316
-0.499645
550.369
-1.59644
-0.484447
549.96
-1.52688
-0.470885
549.592
-1.47833
-0.460803
549.275
-1.49341
-0.455811
-1.5465
-0.452408
547.007
0.193193
0.143147
548.135
1.37889
0.868229
550.235
2.61392
1.63393
553.064
3.68234
2.25766
556.228
4.37808
2.65852
559.284
4.5994
2.80792
561.871
4.36467
2.7282
563.778
3.7884
2.47511
564.953
3.02282
2.11681
565.456
2.20251
1.71386
565.405
1.42493
1.31152
564.934
0.747757
0.939447
564.173
0.19524
0.613968
563.23
-0.231527
0.341298
562.189
-0.544496
0.120942
561.112
-0.761549
-0.0514235
560.043
-0.901907
-0.181987
559.01
-0.983425
-0.277517
558.031
-1.02142
-0.344613
557.115
-1.02852
-0.389365
556.266
-1.01415
-0.416889
555.483
-0.986209
-0.431795
554.766
-0.95029
-0.437773
554.108
-0.910559
-0.437737
553.505
-0.870871
-0.434261
552.951
-0.834414
-0.429502
552.438
-0.807708
-0.424801
551.955
-0.791588
-0.42216
551.494
-0.826
-0.422187
-0.937766
-0.428636
546.944
0.0676044
547.947
0.800627
549.822
1.56502
552.456
2.21125
555.563
2.67389
558.77
2.92089
561.722
2.95518
564.162
2.8103
565.963
2.53732
567.107
2.18917
567.653
1.8111
567.7
1.43724
567.361
1.09039
566.742
0.783302
565.937
0.521188
565.02
0.30417
564.047
0.129134
563.061
-0.00874523
562.088
-0.114942
561.148
-0.194992
560.251
-0.253947
559.404
-0.296455
558.607
-0.326464
557.861
-0.347244
557.162
-0.361662
556.505
-0.372234
555.879
-0.38042
555.273
-0.389096
554.638
-0.39525
-0.411721
535.662
6.00885
16.4585
126.093
20.0105
54.3685
126.842
129.112
129.631
-26.2131
119.567
5.86138
26.8779
-14.6614
-27.1644
25.5466
1.7227
14.5564
0.619758
1.31107
0.226103
-2.1569
-17.2475
8.65813
-0.949961
-8.72732
18.2666
5.88291
-20.5399
-0.661191
21.1846
-5.86641
4.08041
-22.9222
23.4456
-0.472423
-4.13137
2.91042
-24.868
25.2954
-0.342423
-2.9954
2.11509
-26.4504
26.7958
-0.251405
-2.20909
1.56223
-27.7255
28.0026
-0.187112
-1.65226
1.17292
-28.7473
28.9691
-0.141322
-1.25338
0.895236
-29.5652
29.743
-0.10837
-0.964658
0.694597
-30.2221
30.3656
-0.0844033
-0.753672
-30.77
2.11787
124.149
-0.507725
-2.4917
-30.7795
-30.8545
-30.8636
506.571
-2.93577
-8.52443
-125.032
-125.15
-125.597
-125.704
510.854
-2.43271
-7.08739
514.474