/*--------------------------------*- C++ -*----------------------------------*\
  =========                 |
  \\      /  F ield         | OpenFOAM: The Open Source CFD Toolbox
   \\    /   O peration     | Website:  https://openfoam.org
    \\  /    A nd           | Version:  10
     \\/     M anipulation  |
\*---------------------------------------------------------------------------*/
FoamFile
{
    format      ascii;
    class       volVectorField;
    location    "600";
    object      U;
}
// * * * * * * * * * * * * * * * * * * * * * * * * * * * * * * * * * * * * * //

dimensions      [0 1 -1 0 0 0 0];

internalField   nonuniform List<vector> 
27507
(
(13.8851 0.086413 0.0861197)
(13.063 0.333816 0.334672)
(10.9972 0.373691 0.371341)
(4.968 0.522087 0.493824)
(-0.233534 -0.0977073 -0.111898)
(3.06133 -0.153808 -0.160518)
(6.02009 -0.117137 -0.11957)
(8.11168 -0.0810621 -0.0819492)
(9.54383 -0.0556652 -0.0560184)
(10.5341 -0.0389023 -0.0390604)
(11.2346 -0.027875 -0.0279544)
(11.7431 -0.0204946 -0.0205387)
(12.1217 -0.0154424 -0.0154691)
(12.4476 -0.0230182 -0.0230516)
(12.7257 -0.0340644 -0.0341079)
(12.8854 -0.0276472 -0.0276804)
(13.0135 -0.0225982 -0.0226244)
(13.1197 -0.0186886 -0.0187099)
(13.2083 -0.0156304 -0.0156483)
(13.283 -0.0131989 -0.0132142)
(13.3466 -0.0112371 -0.0112504)
(13.4008 -0.00963633 -0.00964803)
(13.4481 -0.00824465 -0.008255)
(13.4858 -0.00718456 -0.0071937)
(13.5307 -0.00557114 -0.00557911)
(13.8905 0.229204 0.0752859)
(13.2543 0.846732 0.279889)
(11.6562 1.60507 0.315938)
(7.19512 3.72485 0.425174)
(1.58753 -1.27369 -0.13832)
(4.96095 -1.29972 -0.146018)
(7.2845 -0.928687 -0.104397)
(8.88376 -0.643693 -0.0720298)
(10.0128 -0.450158 -0.0502016)
(10.8261 -0.320795 -0.0357016)
(11.4231 -0.233696 -0.0259771)
(11.8695 -0.174081 -0.0193365)
(12.2097 -0.132476 -0.0147123)
(12.5202 -0.109888 -0.0219388)
(12.791 -0.0973596 -0.032301)
(12.9361 -0.0795221 -0.026365)
(13.0539 -0.0653638 -0.0216636)
(13.1524 -0.0542731 -0.0179938)
(13.2352 -0.0455419 -0.0151055)
(13.3055 -0.0385681 -0.0127967)
(13.3656 -0.0329183 -0.0109254)
(13.4171 -0.0282789 -0.00939173)
(13.4623 -0.0242787 -0.00805864)
(13.4986 -0.0210066 -0.00703911)
(13.5417 -0.0169135 -0.00545512)
(13.9144 0.304842 0.0602467)
(13.5012 1.03378 0.204453)
(12.6283 2.05531 0.222958)
(10.7387 4.52286 0.269664)
(0.179878 0.947651 -0.0975656)
(7.08137 -2.55363 -0.151836)
(8.49066 -1.77942 -0.103773)
(9.4786 -1.25616 -0.0738997)
(10.2677 -0.906012 -0.0533336)
(10.9032 -0.664212 -0.0390276)
(11.413 -0.494123 -0.028981)
(11.8207 -0.373077 -0.0218526)
(12.1468 -0.285992 -0.0167365)
(12.4088 -0.222696 -0.0130254)
(12.6697 -0.178316 -0.0196899)
(12.9074 -0.147046 -0.0291471)
(13.0279 -0.121359 -0.0240425)
(13.1279 -0.100783 -0.0199454)
(13.2129 -0.084379 -0.0167017)
(13.2855 -0.0712923 -0.014117)
(13.3478 -0.060732 -0.0120301)
(13.4017 -0.0521015 -0.0103244)
(13.4483 -0.0449461 -0.0089165)
(13.4895 -0.0387926 -0.00768739)
(13.5229 -0.0334807 -0.00674337)
(13.5629 -0.0277915 -0.00525273)
(13.9535 0.31911 0.0460413)
(13.7103 1.02486 0.144913)
(13.4551 2.08109 0.300387)
(13.149 3.70571 0.280807)
(13.9637 6.36368 0.26106)
(4.96203 2.92779 0.109392)
(8.83208 -2.62704 -0.250392)
(11.2899 -3.18549 -0.132717)
(10.9904 -2.10347 -0.0846994)
(11.0482 -1.53657 -0.0612367)
(11.2507 -1.16851 -0.0465583)
(11.512 -0.903315 -0.0359648)
(11.7849 -0.703668 -0.027965)
(12.0445 -0.551213 -0.0218652)
(12.2793 -0.43446 -0.017208)
(12.4853 -0.344985 -0.0136495)
(12.6631 -0.276521 -0.0109295)
(12.8615 -0.222198 -0.0168726)
(13.0538 -0.179913 -0.0252852)
(13.146 -0.150494 -0.0211385)
(13.2249 -0.126557 -0.0177557)
(13.2936 -0.107104 -0.0150286)
(13.3534 -0.0913176 -0.0128191)
(13.4056 -0.0784005 -0.0110115)
(13.4514 -0.0677209 -0.00951773)
(13.4917 -0.0587744 -0.00827351)
(13.5276 -0.0510394 -0.00717987)
(13.5571 -0.0442394 -0.00633541)
(13.593 -0.0371906 -0.00498568)
(13.9815 0.298408 0.0337795)
(13.882 0.902964 0.0996703)
(13.841 1.64787 0.180785)
(14.1098 2.46659 0.270885)
(14.7485 3.2687 0.195764)
(16.3385 3.04572 0.0926696)
(17.0777 0.402422 0.00652214)
(14.7786 -1.36766 -0.0846792)
(13.41 -1.48785 -0.0892453)
(12.8085 -1.27484 -0.0755962)
(12.5651 -1.06625 -0.0625809)
(12.4909 -0.892375 -0.0520044)
(12.5068 -0.745312 -0.0432445)
(12.5729 -0.619767 -0.0358567)
(12.665 -0.513347 -0.0296401)
(12.7678 -0.42432 -0.0244669)
(12.8716 -0.350751 -0.0202118)
(12.9707 -0.290493 -0.016752)
(13.0641 -0.242187 -0.0139677)
(13.211 -0.196619 -0.0212817)
(13.2761 -0.166906 -0.0180601)
(13.3341 -0.142281 -0.0153843)
(13.3861 -0.121873 -0.0131825)
(13.4326 -0.104995 -0.0113639)
(13.474 -0.0909619 -0.00985326)
(13.511 -0.0792057 -0.00858912)
(13.544 -0.0692475 -0.00752578)
(13.574 -0.0605715 -0.00658387)
(13.5991 -0.0528597 -0.00585321)
(13.6302 -0.0448826 -0.00466791)
(13.9972 0.259373 0.0241603)
(13.9855 0.753488 0.0689706)
(14.0308 1.27495 0.115829)
(14.2671 1.74094 0.158625)
(14.767 1.808 0.163399)
(15.2529 1.60293 0.0756829)
(15.3441 0.553956 0.024055)
(14.5446 -0.289721 -0.0324617)
(13.9871 -0.572564 -0.0569777)
(13.6089 -0.659398 -0.0617744)
(13.3816 -0.652116 -0.0593047)
(13.2521 -0.606961 -0.0543331)
(13.1869 -0.548126 -0.048593)
(13.1649 -0.485762 -0.0427875)
(13.1717 -0.424852 -0.0372563)
(13.1971 -0.36814 -0.0321893)
(13.2336 -0.317035 -0.0276772)
(13.2756 -0.272067 -0.0237542)
(13.3204 -0.232602 -0.0203776)
(13.3649 -0.199866 -0.0175068)
(13.4072 -0.172376 -0.015097)
(13.4467 -0.148987 -0.0130558)
(13.4834 -0.129221 -0.011333)
(13.5172 -0.112548 -0.00988074)
(13.5482 -0.0984519 -0.00865496)
(13.5765 -0.0864803 -0.0076158)
(13.6023 -0.0762272 -0.00673328)
(13.6262 -0.0672226 -0.00594585)
(13.6465 -0.0591501 -0.00533316)
(13.6726 -0.0507231 -0.00432169)
(14.0057 0.213742 0.0169302)
(14.0388 0.611773 0.0475918)
(14.1217 0.990285 0.0766038)
(14.3161 1.28579 0.0997354)
(14.6134 1.31398 0.100154)
(14.8424 0.99145 0.0728524)
(14.8124 0.487583 0.0339831)
(14.5389 0.026153 -0.00184693)
(14.2095 -0.247326 -0.0216268)
(13.9398 -0.382752 -0.0306762)
(13.7446 -0.435795 -0.0337772)
(13.6113 -0.443152 -0.0336875)
(13.5255 -0.425944 -0.0319773)
(13.475 -0.396046 -0.0294854)
(13.4502 -0.360314 -0.0266682)
(13.4438 -0.322895 -0.0238008)
(13.4502 -0.286332 -0.0210478)
(13.465 -0.25218 -0.0185062)
(13.4852 -0.220886 -0.0162128)
(13.5083 -0.193303 -0.0141884)
(13.5325 -0.169256 -0.0124362)
(13.5568 -0.148333 -0.010912)
(13.5804 -0.130251 -0.00959525)
(13.603 -0.11469 -0.00846344)
(13.6245 -0.101315 -0.00749285)
(13.6447 -0.0898042 -0.0066596)
(13.6636 -0.0798457 -0.00594589)
(13.6817 -0.07104 -0.00530559)
(13.6974 -0.0630973 -0.00480698)
(13.7184 -0.0546723 -0.00396847)
(14.0094 0.168992 0.0116893)
(14.0611 0.485458 0.0327449)
(14.1536 0.773404 0.0515408)
(14.3109 0.982728 0.0651377)
(14.5107 1.0115 0.0658026)
(14.6557 0.814847 0.0516678)
(14.6554 0.495577 0.0302554)
(14.5148 0.174801 0.00911602)
(14.3156 -0.0545267 -0.00528854)
(14.1275 -0.197327 -0.0139569)
(13.9726 -0.27658 -0.01855)
(13.8536 -0.313009 -0.0204804)
(13.7667 -0.322235 -0.0207876)
(13.7062 -0.314814 -0.020133)
(13.6663 -0.297653 -0.0189285)
(13.6424 -0.275302 -0.0174442)
(13.6306 -0.250757 -0.0158553)
(13.6276 -0.226013 -0.0142754)
(13.6309 -0.202195 -0.0127681)
(13.6385 -0.179994 -0.0113815)
(13.6489 -0.15995 -0.0101345)
(13.6609 -0.142044 -0.00901965)
(13.6738 -0.126208 -0.00803413)
(13.6871 -0.112313 -0.00717039)
(13.7003 -0.100182 -0.00641793)
(13.7133 -0.0896126 -0.00576427)
(13.726 -0.0803919 -0.00520054)
(13.7387 -0.072203 -0.00469365)
(13.75 -0.0648009 -0.00429982)
(13.766 -0.0567754 -0.00362595)
(14.01 0.129091 0.00800862)
(14.0656 0.378294 0.0226229)
(14.1545 0.604833 0.0354372)
(14.2838 0.766288 0.0443215)
(14.4309 0.80093 0.0455096)
(14.5383 0.684333 0.0380193)
(14.5569 0.473747 0.0257192)
(14.4868 0.245044 0.0126112)
(14.3669 0.0588079 0.00233498)
(14.2382 -0.0743139 -0.00485382)
(14.1205 -0.160722 -0.00942683)
(14.0213 -0.211083 -0.0120264)
(13.9421 -0.235888 -0.0132617)
(13.881 -0.243318 -0.0135857)
(13.8356 -0.239413 -0.0133201)
(13.8029 -0.228482 -0.0126926)
(13.7806 -0.213544 -0.0118616)
(13.7663 -0.196703 -0.0109364)
(13.7583 -0.179321 -0.00998754)
(13.755 -0.162306 -0.00906455)
(13.7551 -0.146308 -0.0081988)
(13.7577 -0.131577 -0.00740111)
(13.762 -0.118232 -0.00667822)
(13.7675 -0.106295 -0.00603165)
(13.7739 -0.0957139 -0.00545949)
(13.7807 -0.0863943 -0.00495702)
(13.7879 -0.0782162 -0.00452162)
(13.7956 -0.0709502 -0.00413121)
(13.803 -0.0644152 -0.00382973)
(13.8144 -0.0571267 -0.00330748)
(14.0087 0.0953876 0.00548655)
(14.0605 0.289942 0.015811)
(14.1407 0.472082 0.0249906)
(14.2491 0.603547 0.0313756)
(14.3665 0.642918 0.0329236)
(14.4567 0.575416 0.0290147)
(14.4894 0.434715 0.0216912)
(14.4615 0.269427 0.0132628)
(14.3925 0.121231 0.0059168)
(14.3071 0.00484279 0.000207885)
(14.2206 -0.0785209 -0.00386158)
(14.1414 -0.133375 -0.00653607)
(14.073 -0.166034 -0.00814091)
(14.0162 -0.182415 -0.00896456)
(13.9703 -0.187375 -0.00923952)
(13.9341 -0.184654 -0.00914296)
(13.9062 -0.177027 -0.00880638)
(13.8851 -0.166518 -0.00832595)
(13.8696 -0.154535 -0.00776898)
(13.8587 -0.142063 -0.00718354)
(13.8514 -0.129796 -0.00660391)
(13.8469 -0.118126 -0.00604889)
(13.8445 -0.107288 -0.00553079)
(13.8438 -0.0974039 -0.00505673)
(13.8444 -0.0885157 -0.0046302)
(13.846 -0.0806143 -0.00425176)
(13.8484 -0.073664 -0.00392298)
(13.8518 -0.0675234 -0.00363118)
(13.8555 -0.0621022 -0.00340825)
(13.8627 -0.0558362 -0.0030222)
(14.0063 0.067913 0.00379095)
(14.0507 0.218146 0.0112813)
(14.1208 0.365656 0.0181803)
(14.214 0.475029 0.0231339)
(14.3144 0.516336 0.0248622)
(14.397 0.479684 0.0229391)
(14.4408 0.385576 0.0184798)
(14.4407 0.266021 0.0128997)
(14.4066 0.150339 0.00758361)
(14.3532 0.0527854 0.00309727)
(14.2922 -0.0222116 -0.000380631)
(14.231 -0.075603 -0.00289631)
(14.1742 -0.11074 -0.00459997)
(14.1237 -0.131619 -0.00566402)
(14.0801 -0.14193 -0.00624793)
(14.0434 -0.144719 -0.00648242)
(14.0128 -0.142374 -0.00647164)
(13.9879 -0.136719 -0.00629624)
(13.9677 -0.129084 -0.00601634)
(13.9516 -0.12043 -0.00567672)
(13.9389 -0.111448 -0.00531073)
(13.929 -0.102584 -0.0049402)
(13.9214 -0.0941287 -0.00458044)
(13.9157 -0.0862632 -0.00424181)
(13.9116 -0.0790924 -0.00393117)
(13.9088 -0.0726711 -0.00365263)
(13.9072 -0.0670362 -0.00341037)
(13.9067 -0.0621305 -0.00319994)
(13.9071 -0.0579945 -0.00304149)
(13.9103 -0.0529996 -0.00277555)
(14.0033 0.0461563 0.00265969)
(14.039 0.160173 0.00830475)
(14.0998 0.278336 0.0137574)
(14.1821 0.368464 0.0178447)
(14.2728 0.40843 0.0196441)
(14.3529 0.391265 0.01885)
(14.4059 0.329521 0.0161027)
(14.4257 0.244356 0.0123096)
(14.4166 0.156399 0.00839081)
(14.3876 0.0778282 0.00484228)
(14.3471 0.0140026 0.00189545)
(14.3017 -0.0341079 -0.000397189)
(14.2559 -0.0679397 -0.00208353)
(14.2123 -0.0899796 -0.0032574)
(14.1724 -0.102855 -0.00402109)
(14.1367 -0.108915 -0.00446776)
(14.1055 -0.110109 -0.00467761)
(14.0785 -0.107981 -0.00471657)
(14.0553 -0.103705 -0.00463669)
(14.0357 -0.098153 -0.0044785)
(14.0191 -0.0919646 -0.00427336)
(14.0052 -0.085582 -0.00404389)
(13.9937 -0.0793073 -0.00380683)
(13.984 -0.0733465 -0.00357439)
(13.9761 -0.0678383 -0.00335545)
(13.9696 -0.0628801 -0.00315665)
(13.9645 -0.0585688 -0.00298342)
(13.9605 -0.0549218 -0.00283882)
(13.9579 -0.0521649 -0.00273115)
(13.9572 -0.0486682 -0.00256988)
(13.9999 0.0293988 0.00188839)
(14.0272 0.113315 0.00636831)
(14.0805 0.204572 0.0109306)
(14.1555 0.275848 0.01449)
(14.241 0.311417 0.016318)
(14.3213 0.306275 0.0161937)
(14.3822 0.267782 0.0145085)
(14.4171 0.209472 0.0118663)
(14.427 0.145481 0.008907)
(14.417 0.0853788 0.00604732)
(14.3934 0.0342636 0.00352334)
(14.3615 -0.00604929 0.00143724)
(14.3257 -0.0358419 -0.000200268)
(14.289 -0.0564719 -0.00142849)
(14.2532 -0.0696748 -0.00230756)
(14.2196 -0.0771512 -0.00290156)
(14.1887 -0.0803906 -0.00327098)
(14.1608 -0.0806204 -0.00346905)
(14.1359 -0.0788049 -0.00354037)
(14.1138 -0.0756789 -0.00352133)
(14.0945 -0.0717927 -0.00344119)
(14.0776 -0.0675417 -0.00332248)
(14.0628 -0.0632062 -0.00318257)
(14.05 -0.0589878 -0.0030348)
(14.0389 -0.0550344 -0.00288936)
(14.0293 -0.0514639 -0.00275471)
(14.0211 -0.0484182 -0.00263643)
(14.014 -0.0459694 -0.00254468)
(14.0086 -0.0445848 -0.0024748)
(14.0039 -0.042798 -0.00240462)
(13.997 0.0167504 0.00131083)
(14.0174 0.0750774 0.00514101)
(14.0651 0.140173 0.00921844)
(14.1354 0.192036 0.0124807)
(14.2182 0.220672 0.0143489)
(14.2998 0.222408 0.0146638)
(14.3679 0.2009 0.0136734)
(14.4151 0.164146 0.0117937)
(14.4403 0.12119 0.00949164)
(14.446 0.0788615 0.00711682)
(14.4367 0.0413434 0.00489806)
(14.4167 0.0105657 0.00296211)
(14.3901 -0.0131194 0.00135765)
(14.3599 -0.0303024 8.29378e-05)
(14.3285 -0.0420028 -0.000891413)
(14.2973 -0.049334 -0.00160695)
(14.2674 -0.0533325 -0.00210842)
(14.2393 -0.0548871 -0.00243869)
(14.2134 -0.0547181 -0.00263606)
(14.1898 -0.0533882 -0.00273342)
(14.1684 -0.0513263 -0.00275827)
(14.1491 -0.0488499 -0.00273285)
(14.1319 -0.04619 -0.00267494)
(14.1164 -0.0435197 -0.00259877)
(14.1027 -0.0409728 -0.00251533)
(14.0903 -0.038666 -0.00243475)
(14.0793 -0.0367637 -0.00236172)
(14.0693 -0.0353605 -0.00231339)
(14.0612 -0.0351765 -0.00226912)
(14.0518 -0.0352259 -0.00227791)
(13.996 0.00671708 0.000762725)
(14.0112 0.0432442 0.00448845)
(14.0544 0.0821812 0.00837372)
(14.1206 0.114181 0.0115204)
(14.2013 0.133847 0.0135042)
(14.2849 0.138483 0.0141856)
(14.36 0.129099 0.0137039)
(14.4187 0.109682 0.0123567)
(14.4579 0.0851849 0.0105009)
(14.4781 0.0597746 0.00844195)
(14.4822 0.0363087 0.00640546)
(14.4737 0.016353 0.00453688)
(14.4562 0.000450579 0.0029131)
(14.4328 -0.0115258 0.0015609)
(14.4061 -0.0200573 0.000474301)
(14.3779 -0.0257569 -0.000370841)
(14.3495 -0.0292405 -0.00100708)
(14.3219 -0.0310594 -0.00146928)
(14.2956 -0.0316731 -0.00179096)
(14.2709 -0.0314481 -0.0020024)
(14.248 -0.0306668 -0.00212988)
(14.2268 -0.0295438 -0.00219562)
(14.2074 -0.0282347 -0.00221778)
(14.1897 -0.0268637 -0.00221159)
(14.1735 -0.0255228 -0.00218854)
(14.1586 -0.024303 -0.00216041)
(14.145 -0.0233604 -0.00213055)
(14.1319 -0.0227226 -0.00212165)
(14.1212 -0.0233173 -0.0020953)
(14.1055 -0.025126 -0.00217195)
(13.9982 0.000719341 0.000333912)
(14.0095 0.0169016 0.00418344)
(14.0463 0.0346565 0.0081384)
(14.1063 0.0508765 0.0114428)
(14.1831 0.0628915 0.0137836)
(14.2677 0.0688499 0.014994)
(14.3499 0.0682851 0.0151002)
(14.4213 0.0622068 0.0142892)
(14.4765 0.0525023 0.0128353)
(14.5141 0.041109 0.0110135)
(14.5348 0.0296019 0.00905544)
(14.541 0.0190509 0.00713458)
(14.5357 0.0100345 0.00536438)
(14.5219 0.00274927 0.00380655)
(14.5023 -0.00285317 0.00248453)
(14.479 -0.00696086 0.00139606)
(14.4537 -0.00982206 0.000523171)
(14.4277 -0.011692 -0.000160252)
(14.4019 -0.0128028 -0.000683174)
(14.3768 -0.0133518 -0.00107426)
(14.3528 -0.0134989 -0.00135988)
(14.33 -0.01337 -0.00156342)
(14.3086 -0.0130611 -0.00170475)
(14.2886 -0.0126474 -0.00180105)
(14.2699 -0.0121897 -0.00186563)
(14.2522 -0.011733 -0.00191252)
(14.2359 -0.0113776 -0.00194502)
(14.2192 -0.0111202 -0.00199086)
(14.2066 -0.0113522 -0.00199652)
(14.1804 -0.0131319 -0.00211297)
(13.8905 0.0751591 0.229197)
(13.2544 0.278842 0.847811)
(11.6551 0.312674 1.60821)
(7.23089 0.404078 3.75322)
(1.62718 -0.121398 -1.40535)
(4.99317 -0.14154 -1.34556)
(7.29578 -0.102696 -0.944497)
(8.88752 -0.07136 -0.64974)
(10.0142 -0.0499152 -0.452729)
(10.8267 -0.035566 -0.322009)
(11.4234 -0.0259061 -0.23433)
(11.8697 -0.0192959 -0.174442)
(12.2098 -0.0146871 -0.1327)
(12.5203 -0.021907 -0.110043)
(12.7911 -0.0322593 -0.0974814)
(12.9362 -0.0263328 -0.0796162)
(13.054 -0.021638 -0.0654387)
(13.1524 -0.0179728 -0.0543346)
(13.2353 -0.0150879 -0.0455937)
(13.3055 -0.0127816 -0.0386127)
(13.3656 -0.0109122 -0.0329572)
(13.4172 -0.00938015 -0.0283133)
(13.4623 -0.0080484 -0.0243091)
(13.4986 -0.00703007 -0.0210336)
(13.5417 -0.00544724 -0.0169371)
(13.9021 0.202498 0.20271)
(13.3901 0.72082 0.722099)
(12.1374 1.37622 1.37978)
(8.8448 3.13811 3.12928)
(3.82632 -1.39331 -1.40831)
(6.58757 -1.15416 -1.17553)
(8.29412 -0.812187 -0.822536)
(9.50661 -0.570615 -0.575165)
(10.4037 -0.406603 -0.408701)
(11.0779 -0.294904 -0.295951)
(11.5904 -0.21802 -0.218588)
(11.9844 -0.164321 -0.164655)
(12.2911 -0.126214 -0.126425)
(12.5876 -0.104755 -0.104904)
(12.8516 -0.0923608 -0.0924777)
(12.9837 -0.0758438 -0.075935)
(13.0922 -0.0626513 -0.0627245)
(13.1836 -0.0522385 -0.0522988)
(13.2611 -0.04399 -0.044041)
(13.3272 -0.037368 -0.037412)
(13.384 -0.0319798 -0.0320183)
(13.4331 -0.0275376 -0.0275715)
(13.4761 -0.0237035 -0.0237336)
(13.5111 -0.0205502 -0.0205769)
(13.5524 -0.0165822 -0.0166055)
(13.9295 0.274272 0.164521)
(13.5813 0.910249 0.545302)
(12.8815 1.80159 0.998781)
(11.8391 4.05987 2.28152)
(9.33114 7.01536 3.79665)
(4.46748 -2.69121 -1.36327)
(8.48812 -2.22328 -1.15975)
(9.34193 -1.54884 -0.815796)
(10.0411 -1.11297 -0.590177)
(10.6465 -0.817244 -0.43347)
(11.1619 -0.608883 -0.322475)
(11.5925 -0.45928 -0.242889)
(11.9476 -0.350783 -0.18531)
(12.2384 -0.271437 -0.143284)
(12.4764 -0.212976 -0.112342)
(12.727 -0.170534 -0.0944032)
(12.96 -0.139938 -0.0836913)
(13.0701 -0.116028 -0.0694019)
(13.1624 -0.0967781 -0.0578436)
(13.2415 -0.0813314 -0.0486029)
(13.3094 -0.068938 -0.0411977)
(13.3681 -0.0588914 -0.0351958)
(13.4191 -0.0506488 -0.0302734)
(13.4635 -0.0437911 -0.0261878)
(13.5026 -0.0378837 -0.0226455)
(13.535 -0.0327518 -0.0197169)
(13.5732 -0.0273051 -0.015998)
(13.963 0.291989 0.126929)
(13.7643 0.921763 0.395807)
(13.5842 1.81911 0.780492)
(13.4058 3.17881 1.22988)
(14.252 5.24027 1.89402)
(17.7633 6.366 1.90167)
(14.3062 -4.09302 -1.41019)
(11.9198 -2.67753 -0.966196)
(11.4342 -1.83961 -0.661536)
(11.3914 -1.37395 -0.492807)
(11.5163 -1.06161 -0.380913)
(11.7147 -0.831634 -0.298184)
(11.9382 -0.655307 -0.234589)
(12.1604 -0.518426 -0.185285)
(12.3672 -0.412058 -0.147074)
(12.5527 -0.329507 -0.117499)
(12.7153 -0.265672 -0.0946243)
(12.9076 -0.213323 -0.081128)
(13.0973 -0.17184 -0.0728504)
(13.1818 -0.144294 -0.0611863)
(13.2549 -0.121793 -0.0515962)
(13.3188 -0.103407 -0.0438006)
(13.3749 -0.0884142 -0.0374549)
(13.4241 -0.0760984 -0.0322456)
(13.4675 -0.0658815 -0.0279277)
(13.5058 -0.0572969 -0.0243129)
(13.54 -0.0498634 -0.0211583)
(13.5685 -0.0432872 -0.0185355)
(13.6028 -0.0365625 -0.0151699)
(13.9857 0.27619 0.0941254)
(13.9097 0.826702 0.277409)
(13.884 1.48706 0.492261)
(13.98 2.28265 0.646688)
(14.7364 2.88326 0.843523)
(16.0785 2.67855 0.718993)
(16.6445 0.484766 0.115175)
(14.7775 -1.06333 -0.324487)
(13.5593 -1.27197 -0.381674)
(12.9743 -1.1324 -0.336679)
(12.7185 -0.966472 -0.284635)
(12.6258 -0.819354 -0.239649)
(12.6218 -0.691253 -0.201298)
(12.6689 -0.579836 -0.16835)
(12.7441 -0.483968 -0.140212)
(12.8325 -0.402729 -0.116498)
(12.9244 -0.334849 -0.0967801)
(13.014 -0.278748 -0.0805755)
(13.0998 -0.233413 -0.0673864)
(13.246 -0.188429 -0.061511)
(13.3058 -0.160489 -0.0524162)
(13.3595 -0.137231 -0.0447964)
(13.408 -0.11787 -0.0384811)
(13.4515 -0.101794 -0.033245)
(13.4905 -0.0883831 -0.0288823)
(13.5255 -0.0771164 -0.0252223)
(13.5569 -0.0675489 -0.0221291)
(13.5855 -0.0592031 -0.0194101)
(13.6097 -0.0517406 -0.0171379)
(13.6394 -0.0441334 -0.0141816)
(13.9994 0.242224 0.067793)
(13.999 0.700481 0.193691)
(14.0537 1.16945 0.321077)
(14.2873 1.56049 0.431855)
(14.7253 1.63565 0.447033)
(15.1747 1.48124 0.338419)
(15.2574 0.555012 0.120468)
(14.544 -0.211641 -0.0741873)
(14.0411 -0.489001 -0.145794)
(13.6837 -0.585657 -0.164618)
(13.4605 -0.590871 -0.161473)
(13.3285 -0.556948 -0.150007)
(13.2578 -0.50766 -0.135552)
(13.229 -0.453338 -0.120358)
(13.2285 -0.399112 -0.105546)
(13.2468 -0.34785 -0.0917522)
(13.2767 -0.301108 -0.0793151)
(13.3129 -0.259601 -0.0683835)
(13.3527 -0.222957 -0.0588736)
(13.3928 -0.192146 -0.0507776)
(13.4314 -0.166167 -0.0439278)
(13.4679 -0.143991 -0.038087)
(13.502 -0.125177 -0.033132)
(13.5336 -0.109255 -0.0289411)
(13.5627 -0.0957561 -0.0253942)
(13.5895 -0.0842642 -0.022381)
(13.614 -0.0744017 -0.0198108)
(13.6367 -0.0657333 -0.0175365)
(13.6563 -0.0579178 -0.0156287)
(13.6812 -0.0498833 -0.0131042)
(14.0067 0.20095 0.0477294)
(14.0447 0.574152 0.134404)
(14.1312 0.922982 0.214462)
(14.318 1.1848 0.275592)
(14.5909 1.21754 0.279371)
(14.8018 0.929691 0.204518)
(14.7785 0.475698 0.101918)
(14.5342 0.0528783 0.00210074)
(14.2313 -0.207137 -0.0551664)
(13.9757 -0.341743 -0.0825731)
(13.7867 -0.398271 -0.09295)
(13.6552 -0.410307 -0.0939586)
(13.5687 -0.397891 -0.090037)
(13.5159 -0.372481 -0.0836258)
(13.4881 -0.340767 -0.0760877)
(13.4784 -0.306837 -0.0682507)
(13.4813 -0.273229 -0.0606224)
(13.4929 -0.241522 -0.0535081)
(13.51 -0.212234 -0.0470353)
(13.5304 -0.186266 -0.0412771)
(13.5522 -0.163499 -0.0362617)
(13.5744 -0.143604 -0.0318849)
(13.5961 -0.12635 -0.0280893)
(13.6172 -0.111458 -0.024817)
(13.6373 -0.098627 -0.0220038)
(13.6563 -0.0875622 -0.0195845)
(13.6742 -0.0779739 -0.0175039)
(13.6913 -0.0694926 -0.0156538)
(13.7064 -0.0618004 -0.0141)
(13.7263 -0.0537716 -0.0120039)
(14.0097 0.159724 0.0330954)
(14.0629 0.458773 0.0930281)
(14.1558 0.72848 0.1458)
(14.3077 0.921109 0.182976)
(14.496 0.951139 0.186219)
(14.6334 0.773809 0.147636)
(14.6364 0.480783 0.089033)
(14.509 0.182686 0.0296708)
(14.3238 -0.0355962 -0.0118749)
(14.1451 -0.174472 -0.0373542)
(13.9957 -0.253351 -0.0512507)
(13.8795 -0.291183 -0.0574631)
(13.7936 -0.302579 -0.0588868)
(13.7329 -0.297566 -0.0574248)
(13.6921 -0.282788 -0.054279)
(13.6668 -0.262657 -0.0502426)
(13.6533 -0.240103 -0.0458371)
(13.6485 -0.217091 -0.0414036)
(13.65 -0.194756 -0.03714)
(13.656 -0.173799 -0.0331808)
(13.6649 -0.154771 -0.0296015)
(13.6755 -0.137707 -0.0263927)
(13.6871 -0.122567 -0.0235466)
(13.6992 -0.109247 -0.0210454)
(13.7114 -0.0975929 -0.0188615)
(13.7236 -0.0874226 -0.0169617)
(13.7355 -0.0785388 -0.015317)
(13.7473 -0.0706504 -0.0138522)
(13.7582 -0.0634816 -0.0126254)
(13.7734 -0.0558407 -0.0109357)
(14.0099 0.122538 0.0227611)
(14.0655 0.359455 0.0646278)
(14.1536 0.574122 0.10109)
(14.2792 0.726081 0.126085)
(14.4203 0.7607 0.130139)
(14.5241 0.654496 0.109725)
(14.5446 0.459005 0.0754609)
(14.4811 0.244374 0.0383598)
(14.3691 0.0667336 0.00867859)
(14.2466 -0.0619317 -0.0123368)
(14.1332 -0.146556 -0.0259024)
(14.0369 -0.196735 -0.0337797)
(13.9592 -0.22224 -0.0376719)
(13.8988 -0.230815 -0.038873)
(13.8533 -0.228239 -0.038315)
(13.8203 -0.218667 -0.0366615)
(13.7973 -0.205028 -0.0343777)
(13.7822 -0.189378 -0.0317869)
(13.7732 -0.173061 -0.0291012)
(13.7689 -0.156971 -0.0264661)
(13.7681 -0.141759 -0.02398)
(13.7698 -0.127698 -0.0216813)
(13.7733 -0.114922 -0.0195912)
(13.778 -0.103464 -0.0177169)
(13.7836 -0.0932885 -0.0160548)
(13.7898 -0.0843146 -0.0145935)
(13.7964 -0.0764329 -0.0133227)
(13.8035 -0.0694356 -0.0121944)
(13.8104 -0.0631095 -0.0112576)
(13.8212 -0.0561819 -0.00994094)
(14.0085 0.0908478 0.0156403)
(14.0597 0.276638 0.0453854)
(14.1387 0.450542 0.0717589)
(14.2446 0.575901 0.0900798)
(14.3586 0.614719 0.0948765)
(14.4468 0.553017 0.0842208)
(14.4804 0.421327 0.0636316)
(14.4561 0.265143 0.0396239)
(14.3919 0.123439 0.0183662)
(14.3106 0.0110921 0.0017013)
(14.2275 -0.0700923 -0.0102896)
(14.1507 -0.124056 -0.0182617)
(14.0839 -0.156632 -0.0231177)
(14.0281 -0.173415 -0.0256812)
(13.9827 -0.17904 -0.0266222)
(13.9466 -0.177107 -0.0264557)
(13.9185 -0.170301 -0.0255664)
(13.8972 -0.16059 -0.0242368)
(13.8813 -0.149353 -0.0226668)
(13.8699 -0.137555 -0.0209988)
(13.862 -0.125883 -0.0193355)
(13.8569 -0.114734 -0.0177357)
(13.854 -0.104347 -0.0162371)
(13.8528 -0.0948518 -0.0148623)
(13.8528 -0.0862993 -0.0136228)
(13.854 -0.0786887 -0.0125218)
(13.856 -0.0719909 -0.0115623)
(13.8589 -0.0660827 -0.0107187)
(13.8623 -0.0608412 -0.0100307)
(13.8689 -0.0549028 -0.00904792)
(14.0061 0.0648352 0.0108263)
(14.0497 0.208746 0.0325135)
(14.1187 0.350258 0.0524807)
(14.21 0.455322 0.0668629)
(14.3082 0.495832 0.0720668)
(14.3895 0.462443 0.066857)
(14.4336 0.373915 0.0542479)
(14.4357 0.26041 0.0382731)
(14.4045 0.149559 0.0228626)
(14.354 0.0553963 0.00976672)
(14.2954 -0.0174739 -0.00045555)
(14.2363 -0.0697128 -0.00790491)
(14.181 -0.104381 -0.012992)
(14.1316 -0.125235 -0.0162064)
(14.0887 -0.135801 -0.0180066)
(14.0523 -0.139001 -0.0187719)
(14.022 -0.137147 -0.0188064)
(13.9971 -0.132007 -0.0183464)
(13.9768 -0.124878 -0.0175695)
(13.9605 -0.116702 -0.0166079)
(13.9475 -0.108156 -0.0155608)
(13.9373 -0.0996851 -0.0144942)
(13.9294 -0.0915781 -0.0134543)
(13.9235 -0.0840196 -0.0124726)
(13.919 -0.0771183 -0.01157)
(13.9159 -0.0709341 -0.0107598)
(13.914 -0.0655071 -0.0100534)
(13.9132 -0.0607953 -0.00944422)
(13.9133 -0.0568069 -0.00896278)
(13.9161 -0.0520983 -0.00827341)
(14.0031 0.0441254 0.00759786)
(14.0381 0.153562 0.0240163)
(14.0978 0.267254 0.0398915)
(14.1787 0.35419 0.0518334)
(14.2678 0.39328 0.0571967)
(14.3468 0.377913 0.0551116)
(14.3998 0.319668 0.0473178)
(14.4208 0.238565 0.0364164)
(14.4136 0.154152 0.0250362)
(14.3866 0.0782978 0.0146708)
(14.348 0.0163526 0.00601662)
(14.3043 -0.0305873 -0.000752183)
(14.2598 -0.0637887 -0.00575841)
(14.2173 -0.0855796 -0.00926557)
(14.1781 -0.0984613 -0.0115667)
(14.1431 -0.10469 -0.012932)
(14.1122 -0.106147 -0.0135951)
(14.0854 -0.10433 -0.0137491)
(14.0624 -0.100382 -0.0135471)
(14.0428 -0.0951547 -0.0131089)
(14.0262 -0.0892741 -0.0125271)
(14.0122 -0.0831764 -0.0118694)
(14.0004 -0.0771609 -0.0111858)
(13.9906 -0.0714332 -0.0105129)
(13.9825 -0.0661333 -0.00987751)
(13.9759 -0.0613612 -0.00929961)
(13.9705 -0.057214 -0.00879564)
(13.9664 -0.0537217 -0.00837499)
(13.9635 -0.0510787 -0.0080591)
(13.9625 -0.0478196 -0.00762446)
(13.9998 0.0281106 0.00538485)
(14.0265 0.108748 0.0184729)
(14.0789 0.196715 0.031824)
(14.1527 0.265614 0.0422581)
(14.2369 0.300337 0.0476853)
(14.316 0.296117 0.0474723)
(14.3767 0.259774 0.0426873)
(14.4122 0.204147 0.0350691)
(14.4232 0.142681 0.0264585)
(14.4147 0.0846561 0.0180947)
(14.3925 0.0350888 0.0106808)
(14.362 -0.00416986 0.00452851)
(14.3275 -0.0333125 -0.000319563)
(14.2917 -0.0535968 -0.00397029)
(14.2568 -0.0666701 -0.00659518)
(14.2238 -0.0741635 -0.00837964)
(14.1934 -0.0775141 -0.00949986)
(14.1658 -0.0779106 -0.0101116)
(14.1412 -0.0762905 -0.010346)
(14.1194 -0.0733705 -0.0103104)
(14.1001 -0.0696884 -0.0100911)
(14.0832 -0.0656326 -0.0097552)
(14.0685 -0.0614795 -0.00935424)
(14.0557 -0.0574286 -0.00892802)
(14.0445 -0.0536275 -0.00850701)
(14.0348 -0.0501949 -0.00811604)
(14.0264 -0.0472713 -0.00777366)
(14.0193 -0.0449375 -0.00750264)
(14.0137 -0.043634 -0.00731377)
(14.0087 -0.0420263 -0.00709956)
(13.997 0.0159723 0.00371537)
(14.0169 0.0720802 0.0149443)
(14.0639 0.134916 0.0269226)
(14.133 0.185094 0.0365083)
(14.2145 0.212998 0.0420547)
(14.2951 0.215116 0.0430925)
(14.3626 0.194827 0.0402949)
(14.41 0.159735 0.0348641)
(14.4358 0.118458 0.0281509)
(14.4425 0.0776 0.0211918)
(14.4343 0.0412472 0.0146664)
(14.4155 0.0113198 0.00895484)
(14.39 -0.0117925 0.00420822)
(14.3608 -0.0286239 0.000427426)
(14.3301 -0.0401383 -0.00247004)
(14.2997 -0.0474018 -0.00460415)
(14.2703 -0.0514133 -0.00610543)
(14.2427 -0.053033 -0.00709947)
(14.2172 -0.0529605 -0.00769902)
(14.1938 -0.0517438 -0.00800107)
(14.1727 -0.0498015 -0.00808687)
(14.1536 -0.0474447 -0.00802236)
(14.1364 -0.0449003 -0.00786029)
(14.1211 -0.042339 -0.0076429)
(14.1073 -0.039893 -0.00740311)
(14.095 -0.0376789 -0.00716977)
(14.084 -0.0358591 -0.00696137)
(14.0739 -0.0345302 -0.00681122)
(14.0657 -0.0343998 -0.00671461)
(14.0562 -0.0345561 -0.00669034)
(13.9961 0.00631705 0.00216255)
(14.0108 0.0415096 0.0130087)
(14.0533 0.0791565 0.0244148)
(14.1184 0.110132 0.0336802)
(14.1978 0.129273 0.0395834)
(14.2802 0.133993 0.0417053)
(14.3545 0.125185 0.0404099)
(14.413 0.106646 0.0365486)
(14.4525 0.0831024 0.0311545)
(14.4734 0.0585767 0.0251298)
(14.4783 0.0358499 0.0191438)
(14.4707 0.0164629 0.013631)
(14.4542 0.00096799 0.00882549)
(14.4317 -0.0107365 0.0048125)
(14.4058 -0.0191025 0.00157939)
(14.3784 -0.0247155 -0.000941833)
(14.3507 -0.0281685 -0.00284518)
(14.3236 -0.029995 -0.00423238)
(14.2978 -0.030641 -0.00520188)
(14.2734 -0.0304633 -0.00584302)
(14.2508 -0.0297374 -0.00623357)
(14.23 -0.0286734 -0.00643938)
(14.2108 -0.0274235 -0.00651455)
(14.1932 -0.0261104 -0.00650418)
(14.1771 -0.0248246 -0.00644328)
(14.1623 -0.0236557 -0.00636459)
(14.1488 -0.0227607 -0.00628601)
(14.1358 -0.0221564 -0.00624799)
(14.1251 -0.0227886 -0.00621831)
(14.1094 -0.0246071 -0.00635686)
(13.9983 0.000615529 0.000986365)
(14.0093 0.0161814 0.0119803)
(14.0453 0.0333838 0.0234347)
(14.1042 0.0491291 0.0330844)
(14.1798 0.0608643 0.0399691)
(14.263 0.0667998 0.0436031)
(14.3442 0.0664364 0.0440393)
(14.4149 0.0607163 0.0417956)
(14.4699 0.0514328 0.0376513)
(14.5076 0.040452 0.0324042)
(14.5288 0.0293045 0.0267317)
(14.5357 0.0190393 0.0211429)
(14.5312 0.0102328 0.0159737)
(14.5182 0.00308998 0.0114098)
(14.4994 -0.00242489 0.00752487)
(14.4769 -0.00648648 0.00431654)
(14.4524 -0.009331 0.00173562)
(14.427 -0.0112038 -0.000291761)
(14.4018 -0.0123298 -0.00184863)
(14.3772 -0.0129012 -0.00301777)
(14.3536 -0.0130741 -0.0038758)
(14.3313 -0.0129724 -0.00449093)
(14.3102 -0.0126907 -0.00492149)
(14.2905 -0.0123032 -0.00521774)
(14.272 -0.0118706 -0.00541986)
(14.2546 -0.0114361 -0.00556626)
(14.2385 -0.0111054 -0.00567612)
(14.2219 -0.0108558 -0.00580272)
(14.2094 -0.0111226 -0.00586514)
(14.1835 -0.0128579 -0.00613931)
(13.9145 0.0601292 0.304803)
(13.5022 0.203811 1.03464)
(12.6304 0.221439 2.05791)
(10.7675 0.255659 4.51387)
(1.55491 -0.0181406 -1.27778)
(7.26543 -0.140427 -2.655)
(8.54413 -0.101794 -1.80561)
(9.49856 -0.0731467 -1.26727)
(10.2757 -0.0529751 -0.91141)
(10.9067 -0.0388469 -0.66699)
(11.4147 -0.0288843 -0.495631)
(11.8216 -0.0217973 -0.373946)
(12.1473 -0.0167027 -0.286524)
(12.4091 -0.0130033 -0.223042)
(12.6699 -0.0196612 -0.178553)
(12.9076 -0.0291083 -0.14722)
(13.028 -0.0240121 -0.121497)
(13.128 -0.0199209 -0.100895)
(13.213 -0.0166814 -0.0844726)
(13.2856 -0.0140999 -0.0713722)
(13.3479 -0.0120153 -0.0608014)
(13.4017 -0.0103116 -0.0521626)
(13.4484 -0.00890518 -0.0450005)
(13.4895 -0.00767737 -0.0388411)
(13.523 -0.00673454 -0.0335239)