/*--------------------------------*- C++ -*----------------------------------*\
  =========                 |
  \\      /  F ield         | OpenFOAM: The Open Source CFD Toolbox
   \\    /   O peration     | Website:  https://openfoam.org
    \\  /    A nd           | Version:  7
     \\/     M anipulation  |
\*---------------------------------------------------------------------------*/
FoamFile
{
    version     2.0;
    format      ascii;
    class       volScalarField;
    location    "600";
    object      k;
}
// * * * * * * * * * * * * * * * * * * * * * * * * * * * * * * * * * * * * * //

dimensions      [0 2 -2 0 0 0 0];

internalField   nonuniform List<scalar> 
27370
(
348.946
348.705
350.048
309.662
17.8265
34.7862
50.6593
65.3276
76.9018
84.8912
89.7889
92.3233
93.1436
92.7785
91.3572
89.2405
86.8489
84.291
81.6448
78.9655
76.2923
73.6552
71.0826
68.639
66.6347
348.686
347.41
348.329
324.556
21.4624
46.9281
65.1734
77.677
86.0907
91.4121
94.3715
95.5614
95.4599
94.6707
93.0147
90.4721
87.7673
84.9738
82.1471
79.3281
76.5461
73.8236
71.1839
68.6874
66.6441
348.21
345.454
344.8
335.398
2.50223
57.7253
84.0795
96.0286
101.572
103.933
104.499
103.918
102.534
100.572
98.4696
95.8392
92.6001
89.364
86.1613
83.017
79.9499
76.9732
74.0972
71.3362
68.7432
66.628
347.638
343.225
338.309
332.283
298.641
20.7023
118.742
128.727
130.265
128.908
126.083
122.534
118.677
114.717
110.75
106.816
103.082
99.1102
95.0926
91.2412
87.5523
84.0235
80.6516
77.4327
74.3639
71.4489
68.7323
66.522
347.066
341.126
334.432
328.226
311.827
279.85
232.665
211.528
193.29
178.466
166.339
156.044
146.995
138.866
131.483
124.735
118.537
112.82
107.517
102.167
97.4275
92.9863
88.8204
84.9067
81.2243
77.7553
74.4856
71.4086
68.5593
66.2421
346.555
339.35
331.226
320.655
306.052
290.106
265.102
239.027
218.874
201.066
185.538
171.975
160.037
149.442
139.971
131.455
123.761
116.783
110.446
104.572
99.2035
94.2562
89.6767
85.4247
81.4666
77.7729
74.3202
71.0943
68.1205
65.6942
346.122
337.878
328.636
317.512
303.611
286.333
266.952
246.741
227.573
209.91
193.907
179.528
166.641
155.081
144.692
135.332
126.876
119.219
112.27
105.914
100.108
94.7862
89.8922
85.3778
81.2022
77.3299
73.7316
70.3869
67.3106
64.7808
345.762
336.615
326.381
314.555
300.678
284.593
266.91
248.521
230.467
213.347
197.461
182.905
169.667
157.67
146.815
136.993
128.099
120.036
112.715
106.044
99.9562
94.3899
89.2869
84.5972
80.2765
76.286
72.5927
69.1714
66.0261
63.4035
345.457
335.441
324.167
311.428
297.097
281.234
264.264
246.793
229.513
212.929
197.342
182.899
169.633
157.52
146.499
136.488
127.4
119.147
111.648
104.82
98.5948
92.9093
87.7059
82.934
78.5484
74.5085
70.7796
67.3335
64.1623
61.461
345.19
334.21
321.659
307.662
292.419
276.168
259.274
242.186
225.376
209.226
193.988
179.803
166.712
154.705
143.744
133.762
124.685
116.432
108.927
102.096
95.8701
90.1884
84.994
80.2367
75.8717
71.858
68.1605
64.7486
61.6055
58.8427
344.944
332.713
318.369
302.563
285.893
268.773
251.54
234.506
217.979
202.21
187.372
173.567
160.814
149.105
138.403
128.649
119.772
111.698
104.355
97.6723
91.5847
86.0329
80.9618
76.3224
72.0708
68.1667
64.5756
61.2653
58.218
55.4153
344.702
330.553
313.401
294.906
276.196
257.81
239.995
222.887
206.617
191.291
176.983
163.727
151.514
140.319
130.096
120.782
112.31
104.607
97.6054
91.2371
85.4403
80.1582
75.338
70.9326
66.9001
63.2012
59.8043
56.6724
53.8096
50.9979
344.434
326.755
304.748
282.204
260.796
240.933
222.569
205.544
189.761
175.144
161.656
149.253
137.887
127.506
118.049
109.449
101.637
94.544
88.1036
82.2526
76.9329
72.091
67.6775
63.6483
59.965
56.5888
53.4964
50.6335
48.0761
45.3077
343.977
318.197
287.102
258.753
234.369
213.44
195.165
178.927
164.322
151.066
139.005
128.02
118.024
108.938
100.69
93.2095
86.4303
80.2876
74.7204
69.6714
65.088
60.9227
57.1313
53.6746
50.5198
47.6272
44.9953
42.5167
40.437
37.8187
341.91
291.587
243.968
209.576
184.12
164.494
148.512
134.997
123.236
112.795
103.432
94.9925
87.3738
80.4764
74.2373
68.5984
63.5041
58.9017
54.7418
50.9787
47.5699
44.4788
41.6698
39.1126
36.786
34.6406
32.7353
30.8257
29.4764
27.2712
317.06
174.861
118.147
91.1382
75.6272
65.5163
58.1275
52.2838
47.4098
43.1966
39.4815
36.1691
33.1994
30.5384
28.1426
25.982
24.0325
22.2727
20.6836
19.2467
17.9476
16.7674
15.7026
14.7198
13.8541
13.0064
12.3339
11.5479
11.0608
10.2173
348.686
347.413
348.338
324.454
20.7923
46.4942
64.9696
77.586
86.0483
91.391
94.3599
95.5547
95.4558
94.6678
93.0122
90.4702
87.7658
84.9726
82.1462
79.3273
76.5454
73.823
71.1835
68.687
66.6437
348.444
346.36
346.74
330.72
31.2922
61.2251
78.2079
88.0208
93.8032
97.0093
98.4027
98.473
97.5735
96.4028
94.5154
91.6031
88.6165
85.607
82.6132
79.6642
76.7802
73.9775
71.2745
68.7278
66.6473
348.005
344.658
343.542
333.588
104.623
17.1385
78.966
97.7816
105.683
108.714
109.297
108.537
106.951
104.813
102.285
99.901
97.092
93.5557
90.0884
86.7047
83.418
80.2384
77.1724
74.2255
71.4078
68.7695
66.6203
347.479
342.632
337.197
331.663
306.46
92.4671
60.1233
138.896
140.635
138.339
134.755
130.504
125.956
121.35
116.81
112.385
108.09
104.178
100.082
95.8435
91.8163
87.9863
84.3437
80.8803
77.5875
74.459
71.4958
68.7401
66.4999
346.95
340.726
333.753
327.596
312.052
283.465
243.748
220.085
199.879
183.764
170.608
159.494
149.797
141.153
133.351
126.257
119.77
113.812
108.309
102.874
97.9823
93.4145
89.1439
85.1436
81.39
77.8626
74.5449
71.4286
68.5469
66.2041
346.473
339.082
330.774
320.144
305.813
290.652
266.827
241.42
221.405
203.519
187.797
173.991
161.801
150.963
141.268
132.55
124.675
117.536
111.058
105.063
99.5907
94.5547
89.9001
85.5847
81.5732
77.8347
74.3448
71.0879
68.088
65.6404
346.066
337.697
328.336
317.161
303.356
286.415
267.472
247.664
228.715
211.131
195.113
180.663
167.676
156.003
145.498
136.025
127.464
119.709
112.671
106.237
100.361
94.9786
90.0317
85.4716
81.257
77.3514
73.7251
70.3566
67.2601
64.7129
345.723
336.491
326.175
314.305
300.462
284.521
267.047
248.874
230.979
213.95
198.098
183.535
170.262
158.215
147.3
137.417
128.461
120.339
112.962
106.239
100.106
94.4982
89.3588
84.6371
80.2886
76.2741
72.5602
69.1214
65.9607
63.3241
345.43
335.353
324.019
311.24
296.912
281.111
264.243
246.892
229.714
213.2
197.652
183.223
169.952
157.819
146.769
136.726
127.603
119.315
111.782
104.922
98.6667
92.954
87.7261
82.9323
78.5274
74.4707
70.7272
67.2684
64.0861
61.3736
345.172
334.147
321.549
307.515
292.258
276.027
259.182
242.159
225.412
209.312
194.107
179.941
166.856
154.845
143.872
133.875
124.779
116.506
108.982
102.131
95.8864
90.1873
84.9769
80.2052
75.8273
71.8022
68.0946
64.674
61.5231
58.7515
344.931
332.667
318.285
302.443
285.75
268.628
251.413
234.413
217.923
202.188
187.376
173.589
160.847
149.141
138.438
128.679
119.794
111.71
104.356
97.6621
91.5637
86.0015
80.9205
76.272
72.0122
68.1005
64.5028
61.1867
58.1343
55.3248
344.694
330.52
313.335
294.804
276.066
257.666
239.852
222.759
206.51
191.207
176.919
163.68
151.479
140.292
130.073
120.76
112.286
104.58
97.574
91.2003
85.398
80.1102
75.2844
70.8737
66.8362
63.1326
59.7316
56.5958
53.73
50.913
344.429
326.731
304.696
282.118
260.677
240.793
222.419
205.398
189.627
175.027
161.556
149.168
137.815
127.445
117.995
109.4
101.591
94.4986
88.0578
82.2054
76.8836
72.0391
67.6227
63.5907
59.9045
56.5255
53.4306
50.5651
48.0063
45.2337
343.974
318.181
287.06
258.678
234.26
213.306
195.017
178.779
164.181
150.938
138.892
127.923
117.941
108.867
100.628
93.155
86.3809
80.2416
74.6762
69.628
65.0445
60.8785
57.0859
53.6277
50.4713
47.577
44.9436
42.4628
40.383
37.7607
341.909
291.576
243.934
209.511
184.024
164.375
148.381
134.864
123.11
112.68
103.332
94.9074
87.302
80.4171
74.1882
68.5574
63.4691
58.871
54.7138
50.9522
47.5441
44.453
41.6435
39.0854
36.7578
34.611
32.7049
30.7929
29.4448
27.235
317.06
174.856
118.127
91.1044
75.5796
65.4593
58.0654
52.2217
47.3516
43.1447
39.437
36.1322
33.1695
30.514
28.1231
25.9664
24.02
22.2625
20.675
19.2392
17.9406
16.7606
15.6959
14.7128
13.8469
12.9983
12.3262
11.538
11.0532
10.2068
348.212
345.461
344.817
335.455
3.36928
57.5193
83.726
95.7926
101.436
103.856
104.454
103.89
102.516
100.56
98.4612
95.8328
92.5951
89.3601
86.1582
83.0145
79.9478
76.9714
74.0957
71.3349
68.7421
66.6269
348.006
344.661
343.551
333.584
95.2034
15.5631
78.8236
97.6127
105.562
108.64
109.252
108.509
106.934
104.801
102.277
99.8957
97.0881
93.5527
90.086
86.7028
83.4164
80.2371
77.1713
74.2245
71.4069
68.7688
66.6196
347.642
343.274
341.03
333.004
292.477
108.764
122.555
125.848
125.583
123.537
120.574
117.168
113.561
109.868
106.146
102.816
99.2437
95.2053
91.3412
87.6427
84.1054
80.7259
77.5003
74.4256
71.5054
68.7846
66.5724
347.194
341.601
335.323
329.685
311.065
263.324
198.004
182.995
173.766
163.57
154.805
147.1
140.037
133.445
127.276
121.502
116.091
111.005
106.427
101.75
97.1397
92.8084
88.7308
84.887
81.2602
77.8347
74.5987
71.5483
68.7214
66.4255
346.741
340.008
332.451
322.306
311.71
288.429
259.211
232.812
211.178
193.425
178.691
166.194
155.336
145.728
137.122
129.35
122.291
115.851
109.943
104.094
98.9375
94.1476
89.6914
85.5369
81.6559
78.0234
74.6191
71.4315
68.4907
66.1002
346.325
338.593
329.941
319.249
305.147
286.957
266.186
245.109
225.371
207.473
191.518
177.365
164.786
153.558
143.493
134.434
126.25
118.835
112.11
105.904
100.249
95.0561
90.2676
85.8387
81.7312
77.9122
74.355
71.042
67.9948
65.5074
345.962
337.363
327.777
316.507
302.823
286.426
268.109
249.073
230.533
213.125
197.118
182.575
169.432
157.576
146.877
137.213
128.469
120.545
113.351
106.778
100.779
95.2878
90.2464
85.6046
81.3199
77.3547
73.6779
70.2668
67.1335
64.5538
345.651
336.257
325.784
313.823
300.021
284.311
267.173
249.384
231.776
214.919
199.14
184.578
171.255
159.127
148.114
138.124
129.062
120.837
113.362
106.55
100.335
94.654
89.4497
84.671
80.273
76.2156
72.4651
68.995
65.8069
63.144
345.38
335.186
323.734
310.87
296.534
280.827
264.127
246.983
229.986
213.602
198.13
183.731
170.456
158.294
147.198
137.1
127.917
119.569
111.977
105.061
98.7533
92.9929
87.7219
82.8897
78.4509
74.3646
70.5954
67.1145
63.9125
61.1794
345.137
334.026
321.333
307.218
291.924
275.718
258.95
242.035
225.398
209.388
194.246
180.116
167.046
155.032
144.042
134.02
124.894
116.589
109.031
102.147
95.8707
90.1419
84.9043
80.1078
75.7077
71.663
67.9382
64.5027
61.3386
58.5509
344.907
332.577
318.117
302.198
285.451
268.314
251.123
234.175
217.748
202.073
187.31
173.558
160.838
149.142
138.439
128.673
119.776
111.678
104.307
97.596
91.4801
85.9009
80.8039
76.1405
71.8671
67.9433
64.3348
61.0091
57.9486
55.1269
344.677
330.454
313.202
294.597
275.795
257.356
239.535
222.46
206.246
190.982
176.732
163.525
151.348
140.179
129.97
120.662
112.188
104.479
97.4675
91.0869
85.2768
79.9808
75.1467
70.728
66.683
62.9724
59.5652
56.4238
53.5536
50.7276
344.418
326.684
304.59
281.939
260.43
240.494
222.096
205.074
189.32
174.747
161.307
148.948
137.622
127.273
117.84
109.257
101.455
94.3673
87.9283
82.0758
76.7524
71.9054
67.4859
63.4503
59.7606
56.378
53.2799
50.411
47.8506
45.0714
343.969
318.149
286.975
258.523
234.036
213.027
194.705
178.457
163.869
150.647
138.629
127.688
117.733
108.683
100.464
93.0074
86.2455
80.1149
74.5556
69.5111
64.9296
60.7642
56.9712
53.512
50.3542
47.4581
44.8231
42.34
40.2601
37.6329
341.907
291.557
243.867
209.383
183.833
164.135
148.11
134.585
122.839
112.429
103.106
94.7089
87.1291
80.2685
74.0604
68.4464
63.3712
58.783
54.6328
50.876
47.4708
44.3812
41.5722
39.0138
36.6855
34.5373
32.6304
30.7159
29.3682
27.1547
317.06
174.847
118.092
91.042
75.4899
65.3493
57.9432
52.0971
47.2319
43.0351
39.3403
36.0491
33.0995
30.4546
28.0731
25.9245
23.9844
22.2319
20.6481
19.2149
17.9181
16.7392
15.675
14.6919
13.826
12.9768
12.3046
11.5153
11.0302
10.1828
347.64
343.233
338.33
332.32
298.386
20.3814
118.45
128.511
130.066
128.749
125.97
122.458
118.624
114.682
110.725
106.798
103.069
99.1
95.0845
91.2346
87.5469
84.0189
80.6477
77.4294
74.3611
71.4464
68.7301
66.52
347.48
342.638
337.211
331.689
306.414
93.9342
59.218
138.599
140.462
138.199
134.642
130.422
125.899
121.31
116.782
112.365
108.075
104.167
100.074
95.8371
91.811
87.9819
84.3401
80.8772
77.5848
74.4567
71.4939
68.7384
66.4983
347.194
341.603
335.329
329.697
311.073
262.96
197.885
182.872
173.68
163.507
154.753
147.057
140.003
133.42
127.257
121.488
116.081
110.997
106.421
101.746
97.1363
92.8056
88.7284
84.885
81.2584
77.8332
74.5974
71.5472
68.7203
66.4246
346.842
340.363
333.096
323.12
312.023
286.463
252.553
223.887
202.821
186.021
172.431
161.061
151.201
142.435
134.532
127.348
120.779
114.743
109.233
103.701
98.6534
93.9575
89.5783
85.4865
81.6562
78.0642
74.6925
71.5312
68.6127
66.2428
346.477
339.119
330.891
320.503
306.159
291.171
267.368
243.474
222.084
203.568
187.668
173.923
161.896
151.247
141.732
133.173
125.432
118.406
111.996
105.513
100.038
94.9773
90.2924
85.9465
81.9061
78.1413
74.6276
71.3495
68.3328
65.8787
346.134
337.967
328.873
317.988
304.292
287.319
268.159
248.378
229.319
211.647
195.592
181.146
168.184
156.543
146.069
136.621
128.079
120.338
113.319
106.857
100.98
95.5944
90.6401
86.0694
81.8417
77.9217
74.2799
70.896
67.7883
65.2476
345.825
336.919
327.029
315.593
302.044
286.195
268.644
250.379
232.365
215.233
199.309
184.705
171.414
159.362
148.447
138.562
129.604
121.477
114.096
107.354
101.204
95.5799
90.4214
85.6783
81.3065
77.267
73.5272
70.0629
66.8833
64.2599
345.553
335.938
325.24
313.131
299.345
283.871
267.121
249.763
232.505
215.88
200.218
185.683
172.321
160.109
148.987
138.877
129.691
121.343
113.751
106.831
100.517
94.7472
89.4637
84.6153
80.1565
76.0468
72.2514
68.743
65.521
62.8232
345.311
334.952
323.324
310.322
295.941
280.316
263.801
246.892
230.114
213.897
198.53
184.183
170.917
158.73
147.587
137.429
128.18
119.763
112.101
105.119
98.7505
92.9336
87.6115
82.7337
78.2547
74.1332
70.3338
66.8269
63.6015
60.8409
345.087
333.85
321.014
306.768
291.394
275.186
258.49
241.694
225.185
209.288
194.231
180.154
167.112
155.103
144.102
134.057
124.901
116.561
108.966
102.046
95.7346
89.9727
84.7046
79.8804
75.4556
71.389
67.6454
64.1936
61.0148
58.2062
344.872
332.445
317.862
301.817
284.97
267.784
250.598
233.698
217.341
201.738
187.039
173.336
160.651
148.976
138.282
128.515
119.612
111.502
104.117
97.3891
91.2566
85.6609
80.5482
75.8702
71.5834
67.6477
64.0288
60.6942
57.626
54.789
344.654
330.354
312.996
294.27
275.356
256.84
238.983
221.914
205.732
190.514
176.312
163.148
151.01
139.869
129.681
120.388
111.922
104.217
97.2049
90.822
85.0079
79.7069
74.8674
70.4431
66.3928
62.6772
59.2656
56.1202
53.2478
50.4111
344.403
326.611
304.424
281.657
260.031
240.002
221.547
204.507
188.763
174.219
160.817
148.499
137.212
126.897
117.492
108.932
101.148
94.0733
87.6438
81.7977
76.4783
71.6336
67.2152
63.1799
59.4898
56.1066
53.0079
50.1379
47.5789
44.7926
343.961
318.1
286.844
258.282
233.679
212.574
194.188
177.913
163.325
150.125
138.141
127.24
117.324
108.31
100.124
92.6945
85.9551
79.8426
74.2975
69.2638
64.6904
60.531
56.7423
53.2861
50.1304
47.2355
44.6019
42.1184
40.0419
37.41
341.904
291.527
243.765
209.187
183.538
163.757
147.677
134.129
122.384
111.994
102.704
94.3429
86.7993
79.9745
73.7983
68.2115
63.1588
58.5885
54.4525
50.7065
47.3094
44.2258
41.421
38.8656
36.5394
34.3921
32.4869
30.5709
29.2271
27.0091
317.059
174.834
118.043
90.9516
75.3576
65.1843
57.7563
51.9017
47.0393
42.8534
39.1745
35.9012
32.9695
30.3399
27.9725
25.8362
23.9065
22.1624
20.5853
19.1573
17.8644
16.6883
15.6263
14.6444
13.7799
12.9304
12.2602
11.4676
10.9896
10.1334
347.067
341.132
334.447
328.251
311.854
279.727
232.142
211.257
193.121
178.336
166.229
155.95
146.918
138.806
131.437
124.7
118.51
112.798
107.5
102.154
97.4166
92.9772
88.8127
84.9001
81.2187
77.7504
74.4813
71.4049
68.556
66.239
346.951
340.731
333.765
327.617
312.081
284.202
243.434
219.707
199.744
183.665
170.522
159.42
149.736
141.104
133.313
126.227
119.747
113.793
108.294
102.863
97.9729
93.4067
89.1372
85.1379
81.3852
77.8584
74.5412
71.4253
68.544
66.2014
346.741
340.011
332.458
322.318
311.728
288.397
259.143
232.75
211.122
193.374
178.645
166.152
155.3
145.698
137.097
129.331
122.276
115.838
109.933
104.086
98.9309
94.142
89.6867
85.5328
81.6523
78.0203
74.6164
71.429
68.4885
66.0982
346.478
339.121
330.893
320.507
306.163
291.168
267.355
243.459
222.069
203.552
187.651
173.907
161.881
151.235
141.722
133.164
125.425
118.4
111.991
105.509
100.035
94.9744
90.29
85.9444
81.9042
78.1396
74.6261
71.3482
68.3316
65.8776
346.197
338.187
329.272
318.535
304.904
292.037
271.711
250.434
230.192
211.789
195.393
180.862
167.963
156.458
146.148
136.869
128.488
120.894
113.996
106.789
100.998
95.662
90.7439
86.2017
81.9969
78.095
74.4673
71.0947
67.9972
65.4705
345.924
337.277
327.694
316.528
303.085
287.038
269.198
250.615
232.346
215.057
199.066
184.466
171.222
159.241
148.406
138.603
129.723
121.67
114.363
107.651
101.551
95.9701
90.8466
86.1309
81.7799
77.7558
74.0268
70.57
67.3987
64.7971
345.671
336.408
326.155
314.478
300.979
285.557
268.684
251.123
233.656
216.862
201.086
186.486
173.098
160.888
149.784
139.698
130.539
122.218
114.653
107.746
101.446
95.6887
90.4128
85.5675
81.1078
76.9933
73.1902
69.6724
66.4453
63.772
345.44
335.555
324.574
312.244
298.404
283.095
266.68
249.72
232.813
216.444
200.931
186.457
173.086
160.816
149.605
139.389
130.09
121.628
113.926
106.903
100.494
94.638
89.2776
84.3612
79.8434
75.6829
71.8444
68.2994
65.0441
62.3066
345.227
334.66
322.8
309.591
295.096
279.493
263.118
246.417
229.852
213.811
198.57
184.294
171.058
158.867
147.694
137.49
128.186
119.71
111.988
104.948
98.5239
92.656
87.2876
82.3684
77.853
73.7002
69.8741
66.3446
63.0984
60.3072
345.026
333.625
320.59
306.147
290.625
274.355
257.685
240.979
224.588
208.805
193.842
179.835
166.837
154.851
143.855
133.802
124.628
116.266
108.646
101.699
95.3612
89.5741
84.2825
79.4371
74.9934
70.9105
67.1531
63.6898
60.5006
57.6696
344.828
332.27
317.514
301.279
284.263
266.965
249.736
232.852
216.548
201.014
186.384
172.742
160.107
148.469
137.801
128.05
119.154
111.046
103.66
96.928
90.7895
85.1871
80.0675
75.3829
71.0901
67.1493
63.5264
60.1886
57.1184
54.266
344.622
330.219
312.709
293.799
274.706
256.049
238.108
221.009
204.839
189.66
175.508
162.397
150.31
139.215
129.065
119.802
111.36
103.674
96.6765
90.3043
84.4982
79.2031
74.3681
69.9474
65.9
62.1872
58.7783
55.6353
52.7671
49.9213
344.383
326.511
304.189
281.247
259.439
239.256
220.694
203.6
187.845
173.321
159.959
147.69
136.454
126.188
116.829
108.308
100.558
93.5123
87.1068
81.2805
75.9777
71.1466
66.7396
62.7139
59.0322
55.6562
52.5643
49.6995
47.1488
44.3583
343.949
318.031
286.656
257.933
233.157
211.9
193.404
177.068
162.459
149.273
137.323
126.468
116.603
107.641
99.5023
92.1161
85.4149
79.3353
73.8181
68.808
64.2545
60.1117
56.337
52.8926
49.7471
46.8606
44.2353
41.7569
39.6908
37.0572
341.901
291.486
243.626
208.914
183.121
163.216
147.044
133.445
121.686
111.309
102.05
93.7316
86.2334
79.456
73.3244
67.7777
62.76
58.2197
54.1089
50.3839
47.0042
43.935
41.1421
38.5963
36.2786
34.1375
32.2397
30.3249
28.9945
26.7674
317.059
174.817
117.98
90.8337
75.1816
64.9595
57.4957
51.6224
46.756
42.578
38.9149
35.6616
32.7513
30.1413
27.7928
25.6737
23.7592
22.0282
20.4621
19.0432
17.7579
16.5879
15.531
14.5531
13.6923
12.8441
12.1811
11.3704
10.9749
9.99195
346.556
339.355
331.236
320.672
306.067
290.09
265.04
238.968
218.811
201.004
185.478
171.919
159.987
149.398
139.933
131.424
123.735
116.761
110.428
104.557
99.1904
94.2449
89.667
85.4163
81.4592
77.7664
74.3145
71.0892
68.1159
65.69
346.474
339.086
330.783
320.157
305.828
290.649
266.772
241.38
221.359
203.47
187.748
173.945
161.759
150.926
141.237
132.523
124.652
117.517
111.042
105.049
99.5789
94.5447
89.8914
85.5771
81.5665
77.8289
74.3396
71.0833
68.0839
65.6365
346.326
338.596
329.946
319.258
305.156
286.952
266.169
245.085
225.343
207.442
191.486
177.334
164.757
153.532
143.47
134.414
126.233
118.821
112.098
105.893
100.24
95.0481
90.2606
85.8326
81.7258
77.9074
74.3508
71.0382
67.9914
65.5042
346.134
337.968
328.876
317.993
304.296
287.318
268.151
248.367
229.305
211.631
195.574
181.129
168.167
156.528
146.055
136.609
128.068
120.329
113.311
106.85
100.974
95.589
90.6354
86.0652
81.838
77.9183
74.2769
70.8934
67.7859
65.2454
345.924
337.278
327.695
316.529
303.087
287.037
269.196
250.611
232.341
215.051
199.06
184.459
171.215
159.234
148.4
138.598
129.719
121.665
114.359
107.647
101.548
95.9674
90.8442
86.1288
81.778
77.7541
74.0253
70.5686
67.3974
64.7959
345.712
336.57
326.466
314.932
301.522
286.093
269.162
251.516
233.968
217.112
201.299
186.681
173.291
161.088
149.996
139.924
130.779
122.472
114.923
108.022
101.731
95.9809
90.7107
85.869
81.4111
77.297
73.4928
69.9732
66.7456
64.0812
345.51
335.858
325.187
313.178
299.588
284.408
268.014
251.005
234.019
217.565
201.979
187.446
174.033
161.732
150.499
140.266
130.953
122.48
114.767
107.73
101.308
95.4397
90.0662
85.1359
80.6034
76.4274
72.5727
69.0118
65.7449
63.0206
345.318
335.123
323.794
311.154
297.145
281.872
265.666
249.006
232.399
216.272
200.925
186.543
173.204
160.919
149.661
139.379
130.003
121.46
113.676
106.576
100.096
94.1744
88.7553
83.7875
79.2254
75.0273
71.1576
67.5868
64.3069
61.5292
345.134
334.317
322.156
308.652
293.94
278.251
261.921
245.355
228.958
213.077
197.965
183.782
170.602
158.437
147.267
137.049
127.72
119.213
111.457
104.382
97.9248
92.0257
86.6289
81.6847
77.1479
72.9772
69.1367
65.5958
62.3382
59.5171
344.955
333.349
320.049
305.32
289.551
273.122
256.394
239.714
223.399
207.713
192.846
178.92
165.988
154.05
143.087
133.054
123.891
115.533
107.912
100.961
94.6184
88.8257
83.5285
78.6783
74.2309
70.1456
66.3871
62.924
59.7348
56.8832
344.774
332.047
317.054
300.541
283.262
265.759
248.406
231.477
215.189
199.706
185.144
171.572
159.004
147.427
136.81
127.101
118.24
110.16
102.796
96.0824
89.9592
84.3697
79.2614
74.5869
70.3036
66.3718
62.7578
59.4288
56.3678
53.5035
344.583
330.042
312.318
293.141
273.775
254.887
236.784
219.597
203.403
188.244
174.14
161.091
149.071
138.043
127.955
118.748
110.356
102.714
95.7544
89.4154
83.6383
78.3687
73.5563
69.1558
65.1268
61.4308
58.0376
54.9089
52.0567
49.2067
344.357
326.376
303.862
280.667
258.589
238.166
219.425
202.222
186.42
171.899
158.572
146.359
135.19
124.994
115.702
107.245
99.5538
92.5607
86.202
80.4173
75.1512
70.3526
65.9745
61.9745
58.3159
54.9606
51.888
49.0398
46.5089
43.7211
343.934
317.937
286.396
257.441
232.413
210.929
192.258
175.812
161.15
147.96
136.041
125.238
115.437
106.543
98.473
91.1519
84.5108
78.4857
73.0172
68.0503
63.5349
59.4258
55.6808
52.2627
49.1407
46.2749
43.6691
41.206
39.1591
36.5349
341.895
291.432
243.437
208.542
182.547
162.459
146.145
132.458
120.657
110.28
101.049
92.7758
85.3324
78.6155
72.544
67.0542
62.0885
57.5949
53.5252
49.8364
46.4882
43.4465
40.6775
38.1526
35.8535
33.7279
31.8455
29.9431
28.6207
26.4164
317.058
174.798
117.902
90.685
74.9544
64.6627
57.1441
51.2366
46.3549
42.1783
38.5281
35.2952
32.409
29.8231
27.4989
25.403
23.5099
21.7982
20.2491
18.845
17.5726
16.4137
15.3666
14.3967
13.5433
12.7022
12.0395
11.2563
10.7764
9.93555
346.123
337.882
328.643
317.522
303.619
286.328
266.933
246.71
227.535
209.868
193.864
179.486
166.601
155.044
144.659
135.302
126.85
119.196
112.25
105.897
100.093
94.7733
89.8808
85.3678
81.1933
77.3219
73.7245
70.3805
67.3048
64.7754
346.067
337.7
328.341
317.17
303.363
286.412
267.457
247.64
228.684
211.095
195.076
180.626
167.64
155.97
145.469
135.999
127.441
119.689
112.653
106.221
100.347
94.9667
90.0212
85.4623
81.2487
77.344
73.7185
70.3507
67.2547
64.7078
345.963
337.365
327.781
316.513
302.828
286.424
268.098
249.056
230.511
213.099
197.091
182.547
169.405
157.55
146.854
137.192
128.451
120.528
113.336
106.765
100.767
95.2778
90.2375
85.5967
81.3128
77.3484
73.6722
70.2617
67.1289
64.5494
345.826
336.92
327.032
315.597
302.047
286.194
268.638
250.369
232.351
215.217
199.291
184.687
171.396
159.344
148.43
138.547
129.591
121.465
114.085
107.345
101.196
95.5723
90.4146
85.6722
81.301
77.2621
73.5228
70.0589
66.8796
64.2564
345.671
336.409
326.156
314.479
300.98
285.556
268.681
251.118
233.649
216.853
201.076
186.476
173.088
160.878
149.774
139.689
130.53
122.21
114.646
107.74
101.441
95.6837
90.4083
85.5635
81.1041
76.99
73.1872
69.6697
66.4427
63.7697
345.51
335.858
325.188
313.178
299.589
284.407
268.013
251.003
234.016
217.561
201.975
187.442
174.028
161.728
150.495
140.262
130.95
122.476
114.764
107.727
101.305
95.4373
90.064
85.134
80.6016
76.4257
72.5712
69.0105
65.7437
63.0194
345.349
335.275
324.115
311.658
297.804
282.634
266.479
249.829
233.204
217.047
201.666
187.249
173.879
161.566
150.282
139.977
130.579
122.017
114.215
107.098
100.601
94.6637
89.2295
84.247
79.6707
75.4588
71.5757
67.9921
64.7021
61.9295
345.191
334.643
322.881
309.812
295.482
280.072
263.907
247.409
231.012
215.086
199.905
185.64
172.377
160.131
148.882
138.589
129.19
120.617
112.799
105.666
99.1545
93.2042
87.7592
82.7695
78.1897
73.9782
70.0991
66.5219
63.2338
60.4194
345.034
333.917
321.367
307.446
292.376
276.455
260.036
243.496
227.196
211.44
196.453
182.377
169.286
157.188
146.064
135.878
126.571
118.076
110.327
103.257
96.8021
90.9047
85.5097
80.568
76.0348
71.8692
68.0353
64.502
61.2498
58.4029
344.876
333.013
319.358
304.222
288.071
271.348
254.445
237.699
221.4
205.78
191.003
177.172
164.331
152.475
141.583
131.61
122.499
114.185
106.601
99.6823
93.368
87.6006
82.3266
77.4979
73.071
69.0055
65.2663
61.822
58.6497
55.783
344.712
331.766
316.445
299.535
281.858
264.023
246.439
229.384
213.056
197.597
183.098
169.607
157.13
145.644
135.113
125.484
116.695
108.681
101.375
94.7141
88.638
83.0912
78.0217
73.3828
69.1324
65.2313
61.6461
58.344
55.3097
52.4402
344.536
329.811
311.785
292.222
272.455
253.213
234.847
217.497
201.229
186.065
172.004
159.028
147.096
136.164
126.172
117.057
108.751
101.187
94.3004
88.0272
82.3097
77.0942
72.3309
67.9752
63.9872
60.3288
56.9706
53.8736
51.0551
48.2093
344.323
326.194
303.407
279.844
257.374
236.597
217.582
200.2
184.306
169.766
156.47
144.323
133.24
123.141
113.949
105.589
97.9898
91.0826
84.803
79.0904
73.8899
69.1507
64.8264
60.8752
57.2611
53.9462
50.9112
48.0955
45.6019
42.8265
343.915
317.808
286.027
256.741
231.354
209.541
190.611
173.992
159.237
146.024
134.131
123.389
113.669
104.868
96.8934
89.6669
83.116
77.1749
71.7838
66.8873
62.4357
58.3841
54.6911
51.3197
48.2403
45.4124
42.8427
40.4084
38.3977
35.7912
341.888
291.357
243.177
208.026
181.748
161.401
144.882
131.057
119.181
108.786
99.5776
91.3555
83.9792
77.34
71.349
65.9381
61.0472
56.6227
52.6161
48.9842
45.6872
42.6912
39.9633
37.4747
35.2091
33.1116
31.2586
29.3757
28.0817
25.8952
317.058
174.776
117.805
90.4943
74.6574
64.2679
56.6697
50.7079
45.7964
41.6123
37.9709
34.7585
31.8996
29.3433
27.0502
24.9853
23.1217
21.4374
19.9134
18.5319
17.2798
16.1388
15.1081
14.1519
13.3121
12.481
11.8303
11.0539
10.5844
9.75127
345.762
336.618
326.385
314.56
300.682
284.589
266.898
248.5
230.44
213.316
197.427
182.871
169.632
157.638
146.785
136.965
128.074
120.014
112.695
106.026
99.9401
94.3755
89.2741
84.5856
80.2662
76.2767
72.5842
69.1638
66.0191
63.3969
345.724
336.493
326.178
314.309
300.466
284.518
267.037
248.856
230.956
213.923
198.068
183.504
170.231
158.185
147.273
137.391
128.438
120.318
112.943
106.223
100.091
94.4848
89.3468
84.6262
80.2789
76.2653
72.5522
69.1142
65.9541
63.3179
345.651
336.259
325.786
313.826
300.023
284.309
267.165
249.37
231.758
214.898
199.116
184.553
171.23
159.103
148.091
138.103
129.043
120.819
113.346
106.535
100.322
94.6423
89.4392
84.6615
80.2644
76.2079
72.4581
68.9886
65.801
63.1385
345.554
335.939
325.242
313.133
299.347
283.87
267.116
249.754
232.493
215.865
200.201
185.665
172.302
160.091
148.97
138.861
129.676
121.329
113.739
106.819
100.506
94.7378
89.4552
84.6076
80.1495
76.0404
72.2456
68.7377
65.5161
62.8186
345.44
335.556
324.575
312.245
298.404
283.094
266.677
249.714
232.805
216.434
200.92
186.445
173.074
160.804
149.594
139.378
130.08
121.619
113.917
106.894
100.486
94.6311
89.2712
84.3555
79.8381
75.6781
71.84
68.2953
65.0404
62.3031
345.318
335.124
323.794
311.155
297.145
281.871
265.664
249.003
232.395
216.266
200.919
186.536
173.197
160.912
149.654
139.372
129.996
121.453
113.67
106.571
100.091
94.17
88.7512
83.7838
79.2219
75.0242
71.1548
67.5842
64.3044
61.5269
345.191
334.643
322.881
309.812
295.482
280.071
263.906
247.408
231.01
215.084
199.902
185.637
172.374
160.128
148.879
138.586
129.187
120.614
112.797
105.664
99.1523
93.2021
87.7573
82.7677
78.188
73.9767
70.0977
66.5206
63.2326
60.4183
345.061
334.096
321.779
308.112
293.266
277.511
261.195
244.704
228.411
212.635
197.61
183.488
170.346
158.197
147.024
136.789
127.436
118.898
111.109
104.001
97.5102
91.5796
86.1535
81.1826
76.6222
72.4309
68.5729
65.0171
61.7453
58.9007
344.927
333.441
320.373
305.865
290.249
273.913
257.244
240.605
224.318
208.645
193.775
179.827
166.861
154.878
143.858
133.764
124.536
116.112
108.425
101.41
95.0062
89.1551
83.803
78.9016
74.4068
70.2779
66.4795
62.9802
59.7574
56.8919
344.787
332.597
318.454
302.741
286.024
268.838
251.615
234.696
218.344
202.755
188.063
174.345
161.628
149.899
139.128
129.27
120.264
112.046
104.55
97.7113
91.47
85.7697
80.5575
75.7861
71.4124
67.3968
63.7046
60.3045
57.1733
54.2997
344.639
331.403
315.623
298.144
279.889
261.558
243.611
226.332
209.906
194.442
180.004
166.614
154.259
142.906
132.509
123.01
114.344
106.444
99.2445
92.6811
86.6946
81.23
76.236
71.6667
67.4806
63.6391
60.1095
56.8586
53.8749
51.0103
344.477
329.501
311.043
290.923
270.576
250.825
232.071
214.47
198.076
182.885
168.869
155.983
144.173
133.376
123.525
114.55
106.378
98.9404
92.1709
86.0062
80.3886
75.2648
70.5857
66.3072
62.3902
58.797
55.4995
52.4572
49.6961
46.8666
344.28
325.941
302.755
278.66
255.626
234.347
214.943
197.304
181.272
166.694
153.432
141.371
130.406
120.442
111.392
103.174
95.7117
88.9344
82.7761
77.1758
72.0784
67.4339
63.1962
59.3241
55.7826
52.5338
49.5606
46.7985
44.365
41.6157
343.888
317.624
285.49
255.723
229.823
207.55
188.261
171.401
156.512
143.26