/*--------------------------------*- C++ -*----------------------------------*\
  =========                 |
  \\      /  F ield         | OpenFOAM: The Open Source CFD Toolbox
   \\    /   O peration     | Website:  https://openfoam.org
    \\  /    A nd           | Version:  7
     \\/     M anipulation  |
\*---------------------------------------------------------------------------*/
FoamFile
{
    version     2.0;
    format      ascii;
    class       volScalarField;
    location    "600";
    object      nut;
}
// * * * * * * * * * * * * * * * * * * * * * * * * * * * * * * * * * * * * * //

dimensions      [0 2 -1 0 0 0 0];

internalField   nonuniform List<scalar> 
27370
(
624.392
316.353
132.689
37.8259
5.92782
10.6231
16.9745
25.4196
35.0544
44.936
54.3851
62.9914
70.5545
77.9716
84.9497
88.6086
91.4643
93.669
95.3061
96.4537
97.1844
97.5657
97.6686
97.6069
98.0966
625.825
382.192
159.495
54.2034
4.60659
11.6152
20.5828
30.303
40.1695
49.7184
58.5964
66.5717
73.5348
80.7925
87.7467
90.8751
93.32
95.1663
96.4939
97.3774
97.8849
98.0783
98.0236
97.83
98.2123
627.49
513.375
231.384
87.148
0.171339
8.57728
20.4846
32.1606
42.8641
52.4768
61.0199
68.5359
75.0574
80.6255
86.8058
92.8253
95.0352
96.6882
97.8551
98.6044
98.9988
99.0944
98.9417
98.5963
98.1583
98.3406
630.06
542.442
348.72
165.099
53.8855
0.146135
15.3451
29.2129
41.7267
52.7615
62.1977
70.1174
76.7111
82.1803
86.6947
90.3876
94.835
99.2518
100.255
100.868
101.149
101.146
100.905
100.465
99.8608
99.1349
98.3744
98.2905
633.194
556.23
450.18
321.598
172.091
70.5933
39.5133
52.7338
61.997
70.7179
78.3599
84.8007
90.0349
94.156
97.3211
99.699
101.44
102.671
103.49
105.828
105.522
105.009
104.33
103.512
102.58
101.554
100.455
99.3106
98.1921
97.8081
635.823
568.04
480.795
375.272
272.782
182.447
135.415
134.781
128.657
125.556
123.72
122.415
121.261
120.085
118.822
117.465
116.03
114.545
113.076
111.46
109.866
108.269
106.668
105.067
103.472
101.884
100.309
98.7608
97.2896
96.6032
637.123
574.685
499.61
415.595
333.32
266.485
220.443
190.187
172.861
161.043
152.485
145.856
140.365
135.628
131.42
127.61
124.115
120.881
117.885
115.049
112.383
109.871
107.491
105.227
103.066
100.997
99.0141
97.1197
95.339
94.3761
636.424
574.079
504.451
432.501
364.037
305.547
260.315
226.951
203.405
186.07
172.721
161.858
153.036
145.548
139.069
133.371
128.3
123.745
119.624
115.856
112.394
109.199
106.236
103.477
100.897
98.4743
96.192
94.0464
92.0303
90.8396
632.909
564.132
493.762
427.334
367.611
316.539
275.001
242.241
216.935
197.157
181.424
168.518
157.597
148.49
140.656
133.823
127.798
122.437
117.631
113.291
109.349
105.748
102.445
99.4002
96.5818
93.9628
91.518
89.2428
87.0884
85.7355
625.107
541.625
465.368
400.891
347.266
302.894
266.522
236.977
213.128
193.769
177.908
164.78
153.405
143.796
135.581
128.405
122.085
116.475
111.462
106.955
102.878
99.1734
95.7899
92.6872
89.829
87.188
84.7322
82.4655
80.2861
78.8477
609.941
501.329
416.331
353.391
305.867
268.674
238.696
214.14
193.864
176.97
162.841
150.894
140.429
131.505
123.788
117.015
111.03
105.708
100.948
96.6668
92.7974
89.2843
86.0797
83.1464
80.4478
77.9624
75.6494
73.5359
71.454
70.0141
580.256
435.323
344.256
286.661
247.477
218.698
196.103
177.654
162.243
149.1
137.948
128.136
119.653
112.251
105.744
99.987
94.8667
90.2897
86.1795
82.472
79.1131
76.0589
73.2687
70.7144
68.3599
66.1982
64.1711
62.351
60.4933
59.1397
518.326
334.87
250.654
205.972
178.387
159.259
144.461
132.42
122.283
113.322
105.569
98.7145
92.6302
87.2181
82.3887
78.0654
74.1829
70.6851
67.5235
64.6565
62.0469
59.6663
57.4822
55.4815
53.6247
51.932
50.3131
48.9059
47.4001
46.2237
383.648
202.087
147.13
122.119
107.539
97.8438
90.0754
83.7965
78.3545
73.4546
69.0465
65.0571
61.4439
58.1595
55.1741
52.4615
49.9956
47.7519
45.7065
43.8386
42.1266
40.5582
39.1076
37.781
36.5297
35.4097
34.2947
33.3721
32.3456
31.4409
151.873
75.0632
58.1092
50.4824
45.8328
42.7285
40.161
37.9306
35.9175
34.0551
32.3263
30.7189
29.2365
27.8428
26.5473
25.3513
24.2505
23.2385
22.3073
21.4502
20.6574
19.9279
19.2443
18.6228
18.0201
17.4951
16.9509
16.4943
16.0521
15.5101
12.4958
9.27986
7.6279
6.69954
6.10286
5.68027
5.35039
5.07432
4.83202
4.61232
4.40952
4.22049
4.04352
3.87809
3.72286
3.5771
3.44028
3.31193
3.19159
3.07874
2.97302
2.87361
2.78087
2.69245
2.61203
2.53101
2.46409
2.38673
2.32638
2.25089
625.828
382.106
159.396
54.3069
4.33864
11.399
20.4545
30.2307
40.1276
49.6938
58.5805
66.5613
73.5279
80.7871
87.7411
90.8708
93.3166
95.1636
96.4917
97.3755
97.8833
98.077
98.0224
97.829
98.2114
626.908
444.999
188.574
64.5583
5.02605
14.3756
24.7924
35.1551
45.0448
54.2387
62.5819
69.975
76.3759
83.4755
90.4035
93.0523
95.0888
96.5856
97.6154
98.2468
98.5417
98.5565
98.3517
98.0321
98.3115
628.536
536.662
261.742
104.009
1.2674
0.910113
12.8698
25.4028
37.1353
47.6735
56.9575
65.0596
72.0737
78.0861
83.1714
89.2114
95.2135
96.9883
98.2701
99.1211
99.6022
99.7696
99.6733
99.3588
98.877
98.3238
98.4114
631.059
546.757
400.503
189.82
78.7653
1.32751
1.81816
21.6972
35.3376
47.3548
57.8225
66.7034
74.0954
80.1879
85.1836
89.2573
92.5482
96.8838
101.266
101.902
102.202
102.214
101.984
101.548
100.943
100.199
99.3539
98.4924
98.3247
633.99
559.649
458.913
335.803
193.37
100.305
53.2174
64.6008
71.0153
78.1668
84.6408
90.1305
94.5722
98.025
100.618
102.501
103.809
104.662
105.15
107.439
106.841
106.076
105.18
104.176
103.084
101.921
100.706
99.4624
98.2585
97.8027
636.379
570.37
486.28
385.904
287.758
196.793
148.462
146.953
138.02
133.142
129.949
127.597
125.599
123.729
121.889
120.045
118.195
116.355
114.575
112.695
110.873
109.079
107.309
105.562
103.841
102.145
100.476
98.8477
97.3067
96.5607
637.472
576.118
502.827
421.497
341.873
276.394
229.993
198.623
179.727
166.819
157.141
149.735
143.605
138.34
133.694
129.517
125.71
122.209
118.984
115.951
113.115
110.455
107.947
105.572
103.315
101.163
99.1074
97.1503
95.3145
94.3034
636.62
574.87
506.175
435.567
368.518
310.913
265.806
232.105
207.88
189.87
175.959
164.543
155.291
147.442
140.66
134.706
129.416
124.674
120.391
116.481
112.896
109.594
106.539
103.699
101.047
98.5628
96.2264
94.0335
91.9753
90.7465
633.002
564.505
494.57
428.772
369.73
319.177
277.856
245.067
219.532
199.453
183.407
170.249
159.055
149.722
141.698
134.7
128.532
123.046
118.132
113.697
109.67
105.997
102.628
99.5266
96.6579
93.9947
91.5108
89.2012
87.0156
85.6332
625.138
541.749
465.646
401.414
348.103
304.013
267.82
238.34
214.452
194.995
179.007
165.752
154.267
144.527
136.207
128.936
122.531
116.845
111.765
107.197
103.067
99.3145
95.8883
92.7473
89.855
87.1836
84.7006
82.4097
80.2081
78.7475
609.94
501.328
416.35
353.474
306.062
269
239.137
214.661
194.419
177.522
163.362
151.378
140.87
131.892
124.126
117.306
111.276
105.913
101.115
96.7984
92.8969
89.3545
86.1233
83.1656
80.445
77.9396
75.6084
73.4787
71.3815
69.9253
580.244
435.277
344.183
286.583
247.424
218.693
196.157
177.765
162.396
149.28
138.137
128.328
119.842
112.425
105.901
100.125
94.9858
90.3896
86.2604
82.5346
79.1582
76.0875
73.2818
70.713
68.3449
66.1708
64.1321
62.3016
60.434
59.069
518.314
334.825
250.577
205.872
178.28
159.163
144.388
132.381
122.267
113.333
105.605
98.762
92.6855
87.2759
82.4455
78.1185
74.2304
70.7258
67.5565
64.6813
62.0634
59.6744
57.482
55.4735
53.609
51.909
50.2832
48.8699
47.3581
46.1743
383.642
202.063
147.085
122.056
107.462
97.7651
89.9993
83.7341
78.3062
73.4216
69.0285
65.0505
61.4456
58.1674
55.186
52.4751
50.0094
47.7646
45.717
43.8463
42.1311
40.559
39.1047
37.7743
36.5192
35.3956
34.2769
33.351
32.3216
31.4122
151.872
75.0568
58.0946
50.4603
45.803
42.695
40.1266
37.899
35.8902
34.033
32.3096
30.7072
29.2283
27.839
26.5466
25.3527
24.2532
23.2416
22.3102
21.4526
20.659
19.9284
19.2436
18.6208
18.0166
17.4904
16.9449
16.4867
16.0444
15.4989
12.4958
9.27971
7.62728
6.69829
6.10094
5.6778
5.34753
5.07131
4.82905
4.60955
4.40703
4.21834
4.0417
3.87654
3.72157
3.57603
3.43938
3.31117
3.19093
3.07814
2.97244
2.87303
2.78027
2.6918
2.61136
2.53021
2.46339
2.38555
2.32578
2.24965
627.495
513.083
231.059
86.9126
0.188448
8.49637
20.3005
31.9825
42.7288
52.3819
60.9546
68.4906
75.0254
80.6025
86.7881
92.8108
95.0236
96.6789
97.8475
98.5981
98.9936
99.0899
98.9379
98.5931
98.1554
98.338
628.535
536.66
261.471
103.711
1.10387
0.817798
12.8128
25.301
37.0336
47.5921
56.8978
65.0174
72.0439
78.065
83.1564
89.1998
95.2045
96.9811
98.2643
99.1163
99.5982
99.7662
99.6705
99.3564
98.8748
98.3219
98.4097
630.474
545.386
343.295
156.052
46.4856
12.5097
26.4418
38.9955
50.1253
59.7504
67.9254
74.801
80.552
85.3325
89.2675
94.3559
99.5085
100.493
101.097
101.369
101.358
101.109
100.66
100.047
99.3132
98.5466
98.4578
632.828
554.447
444.085
268.514
141.368
40.5093
18.8397
26.6572
39.8075
51.5571
61.7931
70.568
77.887
83.8531
88.6409
92.4423
95.4296
97.7436
101.266
104.871
104.846
104.575
104.097
103.446
102.654
101.744
100.742
99.6773
98.6284
98.3043
635.367
565.494
472.762
356.249
233.944
143.1
101.219
90.9126
91.5531
94.9605
98.6448
101.919
104.54
106.472
107.778
108.557
108.911
108.936
108.703
110.322
109.189
107.962
106.667
105.32
103.934
102.521
101.09
99.6632
98.3006
97.7109
637.329
574.342
495.417
403.235
312.792
239.471
194.037
169.377
155.935
147.086
141.469
137.165
133.582
130.41
127.487
124.734
122.113
119.613
117.26
114.892
112.65
110.495
108.413
106.398
104.444
102.548
100.708
98.9306
97.2602
96.4028
638.058
578.54
508.249
431.386
356.259
292.271
245.415
213.508
192.252
177.233
165.683
156.833
149.513
143.272
137.816
132.958
128.573
124.58
120.932
117.536
114.388
111.457
108.713
106.134
103.699
101.394
99.205
97.1325
95.1946
94.0934
636.937
576.171
509.046
440.712
376.087
319.912
275.12
241.134
215.867
196.697
181.715
169.445
159.353
150.845
143.509
137.086
131.396
126.309
121.726
117.557
113.747
110.25
107.024
104.035
101.253
98.6553
96.2197
93.9402
91.8041
90.5043
633.139
565.072
495.849
431.114
373.256
323.614
282.722
249.966
224.086
203.504
186.907
173.314
161.652
151.89
143.528
136.233
129.805
124.092
118.98
114.371
110.192
106.385
102.899
99.693
96.7327
93.9888
91.4337
89.0614
86.8186
85.3814
625.17
541.888
466.011
402.181
349.409
305.821
269.966
240.634
216.707
197.096
180.897
167.425
155.752
145.783
137.275
129.835
123.278
117.456
112.255
107.579
103.352
99.5126
96.0091
92.7991
89.8452
87.1187
84.5866
82.2522
80.01
78.5079
609.92
501.263
416.287
353.503
306.275
269.442
239.791
215.469
195.301
178.414
164.211
152.168
141.592
132.525
124.674
117.772
111.665
106.229
101.363
96.9847
93.0263
89.4317
86.1529
83.1518
80.3917
77.8506
75.4867
73.3279
71.2035
69.7166
580.209
435.155
343.99
286.364
247.237
218.588
196.156
177.871
162.58
149.524
138.401
128.604
120.119
112.682
106.13
100.325
95.1535
90.5246
86.3631
82.6057
79.199
76.0995
73.2665
70.6722
68.2803
66.0841
64.0249
62.1758
60.291
58.9039
518.287
334.726
250.409
205.653
178.037
158.933
144.195
132.25
122.177
113.295
105.617
98.7981
92.7395
87.338
82.5086
78.1776
74.2816
70.7664
67.5847
64.6961
62.0641
59.6608
57.4543
55.4321
53.5542
51.8417
50.2037
48.7791
47.2576
46.0588
383.631
202.014
146.993
121.925
107.302
97.5977
89.8332
83.5907
78.1874
73.331
68.9661
65.0101
61.4221
58.1567
55.1838
52.4777
50.0136
47.7678
45.7173
43.8424
42.1218
40.5439
39.0832
37.7465
36.4847
35.355
34.2299
33.2978
32.264
31.3456
151.871
75.0449
58.0668
50.4176
45.7444
42.6278
40.0563
37.8321
35.8304
33.9823
32.2687
30.6754
29.2031
27.822
26.5358
25.3462
24.2492
23.239
22.3077
21.4495
20.6546
19.9224
19.2355
18.6106
18.0041
17.4757
16.9279
16.467
16.0236
15.4744
12.4958
9.27947
7.62615
6.696
6.09732
5.67303
5.3419
5.06525
4.82294
4.60369
4.40163
4.21349
4.03743
3.87276
3.71826
3.57314
3.43684
3.3089
3.18886
3.07619
2.97057
2.87119
2.77842
2.68989
2.60939
2.52811
2.46122
2.38321
2.32332
2.24703
630.054
542.418
347.886
164.421
53.3618
0.132406
15.2005
29.0327
41.5286
52.5723
62.038
69.9927
76.6173
82.1106
86.6426
90.3483
94.8048
99.2277
100.235
100.852
101.135
101.135
100.896
100.457
99.8539
99.1289
98.3691
98.2858
631.053
546.734
399.818
189.129
78.5318
1.55852
1.75093
21.4903
35.1631
47.1923
57.6737
66.578
73.9964
80.1125
85.1269
89.2146
92.5156
96.859
101.247
101.886
102.189
102.204
101.975
101.541
100.937
100.193
99.349
98.4881
98.3208
632.824
554.431
444.04
268.056
141.113
39.9478
18.8412
26.5434
39.6706
51.4539
61.7075
70.4943
77.8254
83.8038
88.6024
92.4127
95.4068
97.7258
101.252
104.861
104.838
104.568
104.091
103.441
102.65
101.741
100.738
99.6746
98.6259
98.3021
634.932
563.448
466.994
344.124
213.678
122.256
70.6861
65.1684
70.6863
77.6129
84.1245
89.7503
94.3554
97.9671
100.698
102.689
104.081
104.991
107.139
109.358
108.476
107.463
106.347
105.15
103.892
102.585
101.245
99.8925
98.5959
98.0634
636.979
572.352
489.252
389.546
291.389
197.505
149.477
128.976
121.524
119.269
118.704
118.617
118.515
118.203
117.634
116.828
115.83
114.693
113.455
113.882
112.051
110.22
108.405
106.61
104.841
103.1
101.388
99.7205
98.1487
97.3802
638.411
578.908
506.019
423.282
341.449
273.483
226.174
196.63
178.193
165.639
156.531
149.625
143.925
139.012
134.645
130.683
127.041
123.67
120.564
117.558
114.77
112.143
109.654
107.288
105.032
102.875
100.809
98.8388
96.998
95.992
638.692
581.211
514.368
442.662
372.809
312.202
265.438
231.78
207.858
190.288
176.746
165.867
157.029
149.517
143
137.248
132.108
127.474
123.274
119.404
115.849
112.565
109.515
106.67
104.006
101.501
99.1393
96.917
94.8454
93.6241
637.241
577.481
512.094
446.381
384.64
330.576
286.45
252.039
225.626
205.117
188.857
175.568
164.399
155.05
147.003
139.976
133.768
128.234
123.264
118.761
114.661
110.912
107.466
104.285
101.336
98.5923
96.029
93.6382
91.4009
90.0065
633.227
565.499
496.991
433.448
377.02
328.574
288.328
255.673
229.456
208.326
191.112
176.935
164.784
154.47
145.68
138.009
131.252
125.252
119.889
115.059
110.687
106.709
103.074
99.7361
96.6593
93.8127
91.1671
88.7154
86.3989
84.8889
625.138
541.829
466.1
402.677
350.519
307.576
272.193
243.099
219.184
199.438
183.019
169.294
157.414
147.18
138.443
130.797
124.053
118.065
112.713
107.902
103.555
99.6085
96.0088
92.7127
89.6817
86.8866
84.2929
81.9042
79.6106
78.0537
609.841
501.008
415.94
353.202
306.164
269.608
240.236
216.135
196.095
179.257
165.03
152.935
142.295
133.138
125.191
118.195
111.998
106.477
101.532
97.0798
93.053
89.3956
86.059
83.0052
80.197
77.6121
75.2083
73.0141
70.8555
69.3282
580.131
434.891
343.58
285.876
246.756
218.193
195.89
177.749
162.571
149.61
138.528
128.765
120.297
112.847
106.274
100.44
95.236
90.5726
86.3755
82.5828
79.1415
76.0087
73.1439
70.5196
68.0994
65.8771
63.7931
61.9219
60.0161
58.6001
518.234
334.549
250.114
205.266
177.598
158.493
143.793
131.925
121.905
113.099
105.489
98.7113
92.685
87.3027
82.4828
78.1535
74.2535
70.73
67.5368
64.6347
61.988
59.5693
57.347
55.3092
53.4159
51.6889
50.0365
48.5989
47.0659
45.8474
383.611
201.935
146.848
121.718
107.044
97.3182
89.5471
83.3283
77.9547
73.1358
68.809
64.8846
61.3222
58.0774
55.1194
52.4231
49.9643
47.7202
45.6686
43.7904
42.065
40.4812
39.0138
37.6701
36.4009
35.2641
34.1316
33.1924
32.1539
31.2231
151.869
75.0275
58.0258
50.3537
45.6552
42.5231
39.9438
37.7214
35.7269
33.8899
32.1887
30.6076
29.1448
27.7752
26.4981
25.3151
24.2227
23.2151
22.285
21.4268
20.631
19.8973
19.2084
18.5813
17.9721
17.4412
16.8907
16.4266
15.9829
15.4268
12.4958
9.27912
7.62455
6.69267
6.09198
5.66586
5.33328
5.05575
4.8131
4.59396
4.39234
4.20484
4.02949
3.86546
3.71159
3.56705
3.43125
3.30372
3.184
3.07158
2.96612
2.86682
2.7741
2.68554
2.60504
2.52357
2.45685
2.37807
2.31963
2.24076
633.182
556.175
450.011
321.183
171.22
69.9145
38.6633
52.2055
61.6235
70.4225
78.1177
84.5988
89.8686
94.022
97.2151
99.6159
101.375
102.62
103.449
105.795
105.495
104.987
104.311
103.496
102.566
101.542
100.444
99.3016
98.1841
97.8009
633.98
559.603
458.783
335.486
192.818
88.3425
52.6533
63.7942
70.6456
77.9011
84.4311
89.9584
94.4311
97.9111
100.528
102.429
103.753
104.618
105.114
107.411
106.818
106.057
105.164
104.162
103.072
101.911
100.697
99.4546
98.2515
97.7964
635.36
565.463
472.68
356.05
233.554
142.492
100.859
90.6443
91.3247
94.7804
98.5025
101.803
104.446
106.396
107.717
108.508
108.872
108.905
108.677
110.303
109.173
107.948
106.655
105.31
103.925
102.513
101.084
99.6574
98.2955
97.7062
636.976
572.338
489.218
389.472
291.26
197.311
149.327
128.865
121.427
119.188
118.638
118.564
118.472
118.168
117.605
116.805
115.811
114.677
113.442
113.872
112.043
110.214
108.399
106.605
104.837
103.096
101.385
99.7175
98.146
97.3777
638.438
578.688
504.58
419.422
335.127
253.58
201.359
172.215
156.693
147.747
142.035
137.84
134.425
131.406
128.6
125.925
123.351
120.873
118.491
117.376
114.778
112.283
109.897
107.614
105.426
103.326
101.308
99.3775
97.5739
96.6032
639.309
582.844
515.48
441.345
368.273
305.339
257.746
224.603
201.717
185.362
172.823
162.986
154.938
148.086
142.111
136.805
132.032
127.701
123.765
120.063
116.678
113.537
110.605
107.857
105.272
102.832
100.522
98.3416
96.3131
95.1393
639.129
583.224
519.397
452.443
387.779
330.802
284.861
249.899
223.683
203.717
188.074
175.312
164.762
155.881
148.214
141.496
135.539
130.209
125.41
121.03
117.035
113.37
109.991
106.86
103.948
101.229
98.6828
96.3001
94.0825
92.7261
637.35
578.139
514.118
450.759
391.83
340.053
296.947
262.38
235.062
213.365
195.883
181.571
169.379
159.114
150.328
142.663
135.906
129.899
124.52
119.663
115.257
111.241
107.563
104.179
101.054
98.1559
95.4583
92.9505
90.6043
89.104
633.133
565.319
497.18
434.622
379.575
332.427
292.998
260.618
234.229
212.676
194.928
180.201
167.603
156.751
147.529
139.477
132.387
126.095
120.474
115.418
110.848
106.695
102.905
99.432
96.2357
93.284
90.5455
88.0126
85.6186
84.0276
624.948
541.25
465.388
402.201
350.589
308.313
273.501
244.76
220.975
201.192
184.632
170.705
158.659
148.195
139.249
131.409
124.489
118.339
112.843
107.901
103.436
99.3837
95.6891
92.308
89.201
86.338
83.6835
81.2414
78.8953
77.278
609.638
500.358
414.991
352.17
305.256
268.969
239.912
216.092
196.249
179.53
165.342
153.239
142.576
133.368
125.351
118.281
112.01
106.416
101.401
96.8832
92.7945
89.0794
85.6895
82.5866
79.7332
77.1073
74.6657
72.4383
70.2465
68.6749
579.969
434.374
342.786
284.911
245.739
217.235
195.064
177.089
162.058
149.236
138.227
128.538
120.116
112.685
106.114
100.271
95.0499
90.3649
86.1432
82.3239
78.8555
75.6954
72.8039
70.1538
67.7088
65.4633
63.357
61.4663
59.5412
58.0937
518.14
334.248
249.627
204.627
176.859
157.722
143.046
131.256
121.297
112.592
105.059
98.3473
92.3739
87.0302
82.2365
77.9234
74.0316
70.51
67.3141
64.4057
61.7501
59.3209
57.0871
55.0372
53.1315
51.3925
49.7277
48.2788
46.7367
45.4963
383.58
201.819
146.634
121.412
106.657
96.8866
89.093
82.8897
77.5442
72.7686
68.4855
64.6021
61.0749
57.8601
54.926
52.2475
49.8011
47.5648
45.5173
43.6402
41.9136
40.327
38.8554
37.5069
36.232
35.0897
33.9512
33.0052
31.9653
31.0183
151.867
75.0044
57.9706
50.2661
45.531
42.3736
39.7787
37.5528
35.5628
33.7364
32.0485
30.4815
29.0305
27.6752
26.4103
25.2368
24.1514
23.1487
22.2217
21.3652
20.5698
19.8359
19.1458
18.5174
17.9062
17.3733
16.8214
16.352
15.9156
15.3387
12.4958
9.27869
7.62251
6.68833
6.08486
5.65609
5.32123
5.04213
4.79858
4.57918
4.37776
4.19078
4.01614
3.85279
3.69965
3.55581
3.42067
3.2937
3.17446
3.06242
2.95726
2.85818
2.76563
2.67713
2.59679
2.51492
2.44978
2.36443
2.33227
2.21112
635.809
567.981
480.643
374.936
272.216
181.716
134.669
134.292
128.295
125.268
123.49
122.228
121.108
119.959
118.72
117.382
115.962
114.489
113.029
111.422
109.834
108.241
106.644
105.047
103.454
101.869
100.296
98.7489
97.279
96.5935
636.367
570.32
486.155
385.636
287.347
196.494
147.833
146.599
137.705
132.894
129.75
127.436
125.467
123.62
121.799
119.972
118.135
116.305
114.534
112.661
110.844
109.055
107.288
105.544
103.825
102.131
100.464
98.8369
97.2971
96.5519
637.321
574.305
495.331
403.06
312.51
239.137
193.739
169.129
155.717
146.907
141.324
137.046
133.484
130.328
127.42
124.679
122.067
119.575
117.228
114.865
112.628
110.476
108.396
106.383
104.432
102.537
100.698
98.9219
97.2523
96.3956
638.406
578.888
505.971
423.19
341.303
273.304
226.007
196.487
178.07
165.533
156.443
149.553
143.865
138.962
134.603
130.648
127.012
123.646
120.543
117.54
114.754
112.13
109.643
107.278
105.024
102.868
100.803
98.8327
96.9925
95.987
639.307
582.836
515.462
441.311
368.222
305.273
257.68
224.545
201.666
185.318
172.785
162.955
154.912
148.064
142.092
136.789
132.018
127.689
123.755
120.054
116.671
113.531
110.6
107.852
105.267
102.828
100.519
98.3385
96.3104
95.1367
639.667
584.845
521.369
453.838
388.067
330.075
283.557
248.495
222.441
202.758
187.405
174.893
164.613
155.935
148.436
141.855
136.01
130.77
126.045
121.715
117.764
114.137
110.788
107.681
104.788
102.083
99.5462
97.17
94.9622
93.6208
639.084
583.55
521.522
458.127
397.811
344.292
299.794
264.415
236.73
214.941
197.492
183.256
171.153
161.018
152.306
144.702
137.993
132.021
126.668
121.823
117.424
113.409
109.727
106.335
103.197
100.284
97.5686
95.0406
92.6866
91.1962
637.031
577.337
513.748
452
395.397
345.796
303.995
269.742
242.02
219.554
201.179
185.999
173.085
161.994
152.565
144.344
137.106
130.682
124.942
119.774
115.098
110.847
106.964
103.403
100.122
97.0888
94.2737
91.6645
89.2198
87.6156
632.669
563.908
495.422
433.333
379.38
333.483
295.033
263.179
236.914
215.214
197.17
182.07
169.176
157.928
148.36
140.01
132.652
126.122
120.291
115.05
110.316
106.019
102.102
98.5168
95.2218
92.1833
89.3686
86.7698
84.3089
82.6396
624.454
539.685
463.166
399.873
348.626
306.968
272.793
244.555
221.08
201.443
184.907
170.917
158.81
148.231
139.157
131.193
124.154
117.894
112.295
107.26
102.709
98.579
94.8141
91.3697
88.2057
85.2919
82.5917
80.1105
77.7224
76.0474
609.206
498.99
412.974
349.847
302.938
266.877
238.155
214.682
195.132
178.64
164.596
152.568
141.969
132.794
124.769
117.681
111.383
105.757
100.708
96.1554
92.0319
88.2831
84.8607
81.7271
78.845
76.1927
73.7261
71.4778
69.2622
67.6492
579.659
433.415
341.346
283.159
243.845
215.352
193.303
175.514
160.667
148.043
137.155
127.601
119.274
111.914
105.391
99.5782
94.3757
89.6997
85.4801
81.6579
78.1828
75.0138
72.1116
69.45
66.993
64.7359
62.6172
60.7165
58.7803
57.3037
517.973
333.741
248.834
203.598
175.663
156.447
141.768
130.05
120.156
111.574
104.138
97.5217
91.6293
86.3528
81.6121
77.3397
73.478
69.978
66.7968
63.8977
61.2471
58.8198
56.5852
54.533
52.6234
50.8802
49.2099
47.7561
46.211
44.9516
383.53
201.645
146.322
120.964
106.088
96.2396
88.3995
82.1957
76.8718
72.1411
67.9073
64.0743
60.5934
57.4208
54.523
51.8741
49.4511
47.2327
45.1983
43.3307
41.6102
40.0275
38.5576
37.2098
35.9339
34.7904
33.65
32.7005
31.6618
30.7066
151.863
74.9741
57.8977
50.1487
45.3619
42.1657
39.5439
37.3059
35.3146
33.4961
31.8208
30.2688
28.8318
27.4935
26.2439
25.0835
24.0086
23.0141
22.0932
21.2412
20.4489
19.717
19.0279
18.4001
17.7887
17.2554
16.7029
16.2331
15.7915
15.2277
12.4958
9.27819
7.62
6.68286
6.07566
5.64315
5.30494
5.02325
4.77796
4.55763
4.35595
4.1692
3.9951
3.8324
3.68004
3.53702
3.40267
3.27646
3.15789
3.04644
2.9418
2.84313
2.75095
2.66273
2.58256
2.50124
2.4345
2.3564
2.29632
2.21956
637.111
574.635
499.493
415.366
332.953
266.05
220.008
189.805
172.557
160.787
152.281
145.688
140.226
135.511
131.323
127.529
124.046
120.823
117.837
115.008
112.348
109.84
107.464
105.204
103.045
100.979
98.9981
97.1054
95.3261
94.3643
637.461
576.075
502.727
421.305
341.579
276.05
229.645
198.315
179.464
166.596
156.96
149.586
143.48
138.236
133.607
129.444
125.648
122.157
118.94
115.913
113.083
110.427
107.923
105.551
103.296
101.146
99.0926
97.137
95.3025
94.2924
638.05
578.507
508.176
431.25
356.05
292.019
245.164
213.283
192.055
177.066
165.541
156.716
149.415
143.189
137.746
132.898
128.523
124.538
120.896
117.504
114.361
111.433
108.693
106.116
103.683
101.38
99.1924
97.1211
95.1843
94.084
638.686
581.19
514.321
442.579
372.684
312.047
265.281
231.636
207.73
190.178
176.65
165.787
156.961
149.459
142.95
137.206
132.072
127.443
123.247
119.381
115.829
112.547
109.5
106.657
103.993
101.49
99.1296
96.9083
94.8374
93.6168
639.127
583.212
519.373
452.401
387.717
330.725
284.78
249.823
223.614
203.656
188.02
175.265
164.722
155.846
148.185
141.471
135.517
130.19
125.393
121.016
117.022
113.359
109.981
106.851
103.94
101.222
98.6764
96.2943
94.0772
92.7212
639.083
583.545
521.513
458.112
397.789
344.265
299.765
264.387
236.704
214.917
197.471
183.237
171.137
161.004
152.293
144.691
137.983
132.013
126.661
121.817
117.418
113.404
109.722
106.331
103.194
100.28
97.5656
95.0379
92.684
91.1938
638.199
581.007
518.895
457.44
400.335
349.913
307.325
272.474
244.345
221.617
203.072
187.775
174.779
163.635
154.153
145.89
138.617
132.161
126.39
121.192
116.488
112.209
108.299
104.712
101.406
98.3485
95.51
92.8774
90.4178
88.8106
635.97
574.053
509.433
448.226
393.296
345.667
305.423
272.03
244.552
221.929
203.183
187.535
174.252
162.658
152.795
144.215
136.659
129.956
123.971
118.592
113.732
109.322
105.3
101.618
98.2334
95.1113
92.2193
89.5456
87.0308
85.3383
631.564
560.4
490.446
428.109
374.863
330.131
292.824
261.833
236.097
214.654
196.679
181.524
168.571
157.188
147.451
138.963
131.473
124.821
118.877
113.536
108.712
104.336
100.349
96.7017
93.3527
90.2677
87.4122
84.7805
82.2783
80.5446
623.431
536.435
458.442
394.576
343.477
302.405
268.966
241.421
218.501
199.271
183.005
169.176
157.176
146.671
137.613
129.649
122.599
116.321
110.699
105.639
101.064
96.91
93.1225
89.657
86.4738
83.5432
80.8274
78.3353
75.9276
74.2069
608.37
496.386
409.18
345.45
298.412
262.554
234.218
211.197
192.073
175.957
162.212
150.387
139.985
130.965
123.037
116.02
109.776
104.189
99.1674
94.6334
90.5229
86.7825
83.3654
80.2348
77.354
74.7027
72.2352
69.989
67.7686
66.1239
579.082
431.686
338.826
280.144
240.589
212.067
190.143
172.577
157.976
145.626
134.931
125.599
117.444
110.23
103.822
98.1013
92.9719
88.3536
84.1795
80.3931
76.946
73.7987
70.9135
68.2653
65.8184
63.57
61.4569
59.5632
57.6312
56.1326
517.673
332.876
247.532
201.949
173.767
154.421
139.713
128.065
118.244
109.813
102.506
96.024
90.2524
85.0829
80.4333
76.2369
72.4381
68.9896
65.8502
62.9848
60.3613
57.9557
55.7383
53.7002
51.8012
50.0674
48.4035
46.9556
45.4194
44.1445
383.445
201.372
145.849
120.297
105.247
95.2789
87.3634
81.1395
75.8294
71.1454
66.9681
63.1978
59.778
56.6637
53.8185
51.2155
48.8315
46.6456
44.6381
42.7923
41.0896
39.5213
38.0626
36.7242
35.4553
34.3179
33.1824
32.2343
31.2067
30.2393
151.858
74.9328
57.7982
49.9872
45.1284
41.8756
39.2123
36.9508
34.9506
33.136
31.4718
29.9358
28.5152
27.1971
25.9668
24.8238
23.7639
22.7821
21.8717
21.0283
20.2429
19.5168
18.8319
18.208
17.5992
17.068
16.5184
16.0467
15.6133
15.0418
12.4958
9.27759
7.61687
6.67583
6.0636
5.6259
5.28287
4.99727
4.74909
4.52694
4.32434
4.13737
3.96358
3.80145
3.64989
3.50781
3.37446
3.24923
3.13161
3.02103
2.91719
2.81922
2.72771
2.63999
2.56043
2.47934
2.41335
2.33493
2.27591
2.19867
636.415
574.041
504.369
432.353
363.81
305.27
260.026
226.681
203.173
185.872
172.55
161.717
152.915
145.446
138.981
133.296
128.235
123.689
119.576
115.814
112.357
109.167
106.208
103.452
100.875
98.4545
96.1742
94.0303
92.0157
90.8261
636.611
574.837
506.104
435.439
368.327
310.68
265.561
231.875
207.675
189.693
175.806
164.415
155.182
147.349
140.579
134.637
129.357
124.623
120.346
116.442
112.862
109.565
106.513
103.675
101.026
98.5442
96.2096
94.0184
91.9615
90.7338
636.93
576.145
508.991
440.616
375.944
319.736
274.934
240.957
215.707
196.556
181.593
169.339
159.263
150.768
143.442
137.028
131.346
126.265
121.688
117.524
113.718
110.224
107.001
104.014
101.235
98.639
96.205
93.9269
91.792
90.4931
637.236
577.463
512.056
446.316
384.545
330.458
286.325
251.918
225.514
205.017
188.769
175.49
164.332
154.991
146.952
139.932
133.73
128.2
123.235
118.735
114.638
110.891
107.448
104.269
101.322
98.5791
96.0171
93.6274
91.391
89.9973
637.347
578.128
514.095
450.721
391.776
339.985
296.873
262.307
234.993
213.302
195.826
181.52
169.334
159.075
150.293
142.632
135.88
129.876
124.499
119.645
115.241
111.227
107.55
104.168
101.043
98.1463
95.4495
92.9425
90.597
89.0971
637.03
577.332
513.737
451.982
395.371
345.763
303.958
269.705
241.984
219.521
201.148
185.972
173.06
161.972
152.545
144.326
137.09
130.668
124.929
119.763
115.088
110.838
106.956
103.395
100.115
97.0827
94.2682
91.6594
89.2151
87.6112
635.97
574.051
509.429
448.22
393.287
345.655
305.41
272.017
244.539
221.916
203.171
187.524
174.242
162.649
152.787
144.207
136.652
129.95
123.965
118.587
113.728
109.318
105.296
101.615
98.2304
95.1085
92.2167
89.5433
87.0286
85.3363
633.691
566.845
499.229
437.4
383.593
337.864
299.512
267.592
241.093
219.043
200.587
185.044
171.813
160.169
150.207
141.549
133.911
127.13
121.073
115.632
110.719
106.262
102.201
98.4875
95.0773
91.9358
89.0287
86.3474
83.808
82.0554
629.378
553.487
480.521
417.155
364.344
320.827
284.949
255.254
230.548
209.867
192.431
177.646
164.942
153.754
144.139
135.732
128.299
121.689
115.776
110.458
105.654
101.294
97.3214
93.6877
90.3516
87.28
84.4371
81.822
79.3188
77.5452
621.488
530.372
449.758
384.818
333.757
293.368
260.889
234.333
212.302
193.812
178.137
164.764
153.099
142.913
134.075
126.284
119.372
113.205
107.675
102.69
98.1788
94.0788
90.3378
86.9132
83.7662
80.8687
78.1817
75.7205
73.3279
71.5823
606.812
491.659
402.492
337.852
290.634
255.057
227.254
204.867
186.374
170.843
157.605
146.156
136.14
127.421
119.735
112.917
106.835
101.384
96.476
92.0372
88.0073
84.3359
80.9779
77.899
75.0631
72.4523
70.0193
67.8086
65.6121
63.9524
578.014
428.595
334.497
275.13
235.279
206.749
185.013
167.76
153.508
141.545
131.148
122.158
114.281
107.31
101.108
95.5619
90.5798
86.086
82.0171
78.3201
74.949
71.867
69.0377
66.4383
64.0334
61.8228
59.7414
57.8794
55.9743
54.4658
517.121
331.359
245.356
199.297
170.795
151.288
136.55
124.993
115.275
107.04
99.9127
93.6206
88.025
83.0153
78.5073
74.4346
70.7426
67.3858
64.3249
61.5267
58.9605
56.6044
54.4292
52.4281
50.5606
48.8553
47.2154
45.7886
44.2802
42.9942
383.292
200.917
145.097
119.272
103.984
93.853
85.8347
79.5772
74.2787
69.6491