/*--------------------------------*- C++ -*----------------------------------*\
  =========                 |
  \\      /  F ield         | OpenFOAM: The Open Source CFD Toolbox
   \\    /   O peration     | Website:  https://openfoam.org
    \\  /    A nd           | Version:  7
     \\/     M anipulation  |
\*---------------------------------------------------------------------------*/
FoamFile
{
    version     2.0;
    format      ascii;
    class       volScalarField;
    location    "600";
    object      p;
}
// * * * * * * * * * * * * * * * * * * * * * * * * * * * * * * * * * * * * * //

dimensions      [0 2 -2 0 0 0 0];

internalField   nonuniform List<scalar> 
27370
(
121.303
190.909
291.684
500.955
-40.981
-25.2317
-15.6022
-9.33452
-5.16709
-2.51076
-0.893633
0.0470755
0.565832
0.918568
0.982193
0.820195
0.804117
0.747825
0.672435
0.598465
0.528198
0.457995
0.417142
0.292148
0.619142
105.116
157.844
259.482
435.151
-40.3438
-24.0101
-14.6231
-8.67018
-4.78083
-2.30493
-0.789947
0.0961611
0.584166
0.897694
0.973122
0.832263
0.803673
0.744939
0.668737
0.59405
0.52334
0.454118
0.408374
0.302857
0.571587
85.7652
109.436
192.284
315.85
-55.1972
-34.2455
-20.1031
-12.1129
-7.1441
-3.9213
-1.85022
-0.562987
0.200738
0.622253
0.868359
0.945361
0.829146
0.791165
0.729359
0.65387
0.579999
0.510135
0.442125
0.394612
0.29454
0.534966
68.5465
71.1754
110.309
183.706
206.243
-163.983
-54.4562
-28.6815
-16.2515
-9.4891
-5.47102
-2.9375
-1.31637
-0.298735
0.313491
0.654217
0.807941
0.895635
0.811187
0.767008
0.702777
0.629476
0.557725
0.489735
0.42355
0.375088
0.278989
0.487042
52.6275
51.4878
59.7688
85.7619
69.4296
11.8117
-65.0211
-61.1752
-34.7743
-19.7499
-11.3076
-6.44435
-3.55006
-1.76718
-0.650396
0.0420771
0.454277
0.665988
0.740274
0.827252
0.774084
0.728228
0.663821
0.594488
0.526488
0.46174
0.39841
0.349841
0.258371
0.429442
38.3361
37.436
37.2413
35.0518
20.6445
-2.08451
-28.0574
-26.8251
-18.1286
-10.9465
-6.46054
-3.64473
-1.86334
-0.741375
-0.0415298
0.38162
0.621305
0.728964
0.786776
0.764074
0.723538
0.672908
0.61241
0.549034
0.486448
0.426422
0.367165
0.319535
0.233809
0.365943
26.9645
25.8176
23.9979
20.1547
11.5604
-5.09697
-13.9759
-16.1949
-11.564
-7.5541
-4.72645
-2.73659
-1.40139
-0.532879
0.0203931
0.360328
0.556156
0.650415
0.677912
0.682074
0.647441
0.601906
0.549295
0.493756
0.438266
0.384427
0.330544
0.285098
0.206536
0.300113
18.7636
17.5126
15.3323
10.9849
4.93239
-3.56053
-8.55779
-9.66988
-7.4869
-5.24683
-3.41842
-2.02581
-1.04396
-0.383634
0.0477183
0.317916
0.476204
0.556366
0.586229
0.583864
0.556546
0.519458
0.476098
0.429757
0.38279
0.33649
0.289319
0.247498
0.177727
0.235336
13.2184
11.9012
9.6283
5.70207
1.31786
-3.41034
-5.9552
-6.4215
-5.21161
-3.80718
-2.56724
-1.5768
-0.846572
-0.336833
0.00623548
0.227757
0.362073
0.434499
0.465661
0.468551
0.452275
0.425996
0.393541
0.357811
0.320687
0.283211
0.244113
0.207523
0.148341
0.174545
9.76061
8.35641
6.05023
2.70874
-0.441343
-3.2027
-4.54026
-4.6595
-3.87303
-2.9236
-2.04873
-1.32406
-0.770386
-0.368277
-0.0878733
0.100407
0.220649
0.29143
0.327794
0.34035
0.336431
0.322589
0.302448
0.278518
0.252377
0.224917
0.195247
0.165613
0.118984
0.120001
7.86869
6.36075
4.05082
1.2806
-1.02263
-2.74395
-3.51714
-3.52372
-3.00532
-2.35613
-1.73323
-1.1992
-0.775243
-0.454028
-0.219944
-0.0547591
0.0579328
0.131303
0.176112
0.20044
0.210105
0.210014
0.203293
0.192133
0.177946
0.161566
0.142623
0.12172
0.0897661
0.073161
7.07185
5.48744
3.27789
1.04599
-0.707309
-1.94076
-2.53378
-2.60854
-2.3353
-1.93605
-1.52079
-1.14362
-0.826576
-0.572871
-0.377004
-0.229526
-0.12079
-0.0424447
0.0126248
0.0500857
0.0742806
0.0888399
0.0963282
0.0986667
0.0971812
0.0927515
0.0856911
0.075224
0.0601554
0.0345648
6.94575
5.3941
3.47091
1.71387
0.277344
-0.802127
-1.4493
-1.71755
-1.70979
-1.55673
-1.34105
-1.11198
-0.896398
-0.707
-0.547361
-0.416214
-0.310422
-0.226353
-0.160373
-0.109194
-0.0700214
-0.0403565
-0.0182283
-0.00197265
0.00969553
0.0177728
0.0234517
0.0248814
0.0287625
0.00366715
7.07162
5.78652
4.326
2.94157
1.66123
0.564035
-0.252584
-0.778491
-1.05586
-1.15868
-1.14904
-1.073
-0.963425
-0.841774
-0.720939
-0.607996
-0.506403
-0.417435
-0.341041
-0.276425
-0.222452
-0.177751
-0.140986
-0.110799
-0.0859161
-0.0652355
-0.0464971
-0.0321663
-0.0080988
-0.022412
7.01614
6.30606
5.33997
4.24087
3.07139
1.9373
0.952288
0.179651
-0.368983
-0.721616
-0.918522
-1.00006
-1.00219
-0.953887
-0.876719
-0.785897
-0.691571
-0.600142
-0.515315
-0.43893
-0.371603
-0.313158
-0.262904
-0.219907
-0.182861
-0.150659
-0.120111
-0.0929335
-0.0505162
-0.0464933
6.89557
6.60562
5.99662
5.12873
4.09432
2.99458
1.94066
1.02369
0.292072
-0.247613
-0.613682
-0.835653
-0.946436
-0.977109
-0.953844
-0.897079
-0.821917
-0.738983
-0.655337
-0.575366
-0.501534
-0.434984
-0.375889
-0.323928
-0.278067
-0.237332
-0.198297
-0.161606
-0.105314
-0.0796964
105.067
157.855
259.28
434.354
-40.0509
-23.8447
-14.5793
-8.6592
-4.77791
-2.30411
-0.78976
0.0961726
0.584132
0.897672
0.973121
0.832264
0.803678
0.744951
0.668753
0.594069
0.523359
0.454136
0.40839
0.302868
0.571598
93.5014
130.126
228.189
381.39
-38.157
-22.3801
-13.555
-8.01895
-4.41614
-2.11299
-0.694094
0.140816
0.601017
0.880274
0.961445
0.839393
0.800767
0.740118
0.663663
0.58865
0.517786
0.449514
0.399798
0.313731
0.521715
78.4305
91.6565
167.336
266.607
377.51
-56.8501
-32.6559
-19.0078
-11.3479
-6.65546
-3.63628
-1.69608
-0.485513
0.235878
0.634458
0.853627
0.932408
0.830864
0.785707
0.722823
0.647519
0.573714
0.50398
0.437013
0.386091
0.304588
0.487009
63.0428
63.4755
90.5116
158.859
168.093
23.9879
-139.359
-52.3988
-27.6275
-15.5897
-9.03366
-5.16816
-2.75085
-1.2103
-0.243681
0.338433
0.662433
0.79914
0.882384
0.806774
0.758516
0.694181
0.621475
0.550248
0.482731
0.417761
0.366506
0.287395
0.443426
48.6095
47.5193
52.2719
74.4589
59.6228
1.08776
-55.9849
-54.6123
-32.5231
-18.8002
-10.8274
-6.16776
-3.38336
-1.67007
-0.59871
0.0652391
0.460769
0.666082
0.733165
0.816104
0.764341
0.716935
0.653307
0.584917
0.517848
0.453894
0.39195
0.341241
0.264913
0.39089
35.6104
34.6189
33.7262
29.8689
17.0902
-1.15848
-24.679
-24.0355
-16.6234
-10.222
-6.06246
-3.4184
-1.73651
-0.674649
-0.0121084
0.3885
0.615012
0.717616
0.776139
0.750184
0.709623
0.659517
0.600208
0.538113
0.476794
0.417835
0.360112
0.311003
0.238397
0.332908
25.209
24.0536
22.0497
17.779
9.60845
-4.87839
-12.6589
-14.658
-10.7606
-7.10198
-4.45365
-2.58044
-1.31522
-0.489292
0.0372717
0.360754
0.546709
0.635681
0.660583
0.664102
0.631362
0.586964
0.53581
0.481826
0.427832
0.37527
0.323028
0.276746
0.209177
0.272786
17.6541
16.4562
14.2691
9.98258
4.15769
-3.49628
-7.98153
-8.97838
-7.08119
-4.99609
-3.27
-1.94726
-1.00749
-0.372514
0.0433047
0.304517
0.458027
0.536199
0.565188
0.564224
0.538918
0.503422
0.461809
0.417203
0.371871
0.326993
0.281514
0.239452
0.178535
0.213609
12.528
11.2956
9.08687
5.29562
1.07094
-3.26775
-5.64333
-6.06356
-4.98219
-3.66416
-2.48526
-1.53757
-0.834414
-0.340938
-0.00760339
0.208617
0.340542
0.412533
0.444294
0.448562
0.434142
0.409661
0.379045
0.345089
0.309638
0.27365
0.236231
0.199917
0.147528
0.158055
9.33062
8.02621
5.80858
2.59714
-0.452939
-3.04314
-4.32629
-4.44445
-3.73046
-2.83494
-2.00004
-1.30422
-0.769282
-0.378693
-0.104963
0.0798466
0.198768
0.269663
0.306967
0.320936
0.318783
0.306718
0.288342
0.266111
0.241585
0.215597
0.187522
0.158586
0.116844
0.108191
7.59092
6.18977
3.97522
1.31028
-0.930348
-2.58265
-3.34749
-3.37322
-2.90307
-2.29226
-1.69886
-1.18642
-0.776774
-0.464669
-0.23592
-0.0735243
0.0381044
0.111568
0.157175
0.182727
0.193886
0.195345
0.190182
0.180541
0.167817
0.152816
0.135313
0.115419
0.0866648
0.0653392
6.87683
5.40094
3.28202
1.125
-0.588106
-1.79388
-2.39342
-2.49101
-2.25244
-1.88243
-1.49037
-1.13047
-0.825451
-0.579708
-0.388774
-0.244103
-0.136687
-0.0586354
-0.00319424
0.035064
0.0603255
0.0760689
0.0847963
0.0883815
0.0881294
0.0849124
0.0790727
0.0698078
0.0565199
0.0299787
6.79148
5.34461
3.49606
1.78783
0.380008
-0.684475
-1.33757
-1.62323
-1.63926
-1.50788
-1.31026
-1.09528
-0.890085
-0.707988
-0.553249
-0.425221
-0.321238
-0.238034
-0.172262
-0.120839
-0.0811165
-0.0507179
-0.0277411
-0.0105731
0.0020422
0.0111101
0.0177457
0.0204475
0.0250057
0.00153091
6.93608
5.73883
4.32995
2.97889
1.72394
0.642278
-0.172652
-0.706243
-0.996944
-1.11385
-1.11713
-1.05205
-0.951188
-0.836151
-0.720151
-0.610612
-0.511305
-0.42377
-0.348174
-0.283889
-0.229905
-0.184957
-0.147776
-0.117058
-0.0915638
-0.0701734
-0.050785
-0.035272
-0.0113053
-0.0227097
6.91079
6.23655
5.30205
4.22922
3.08414
1.96971
0.996294
0.227616
-0.323062
-0.681091
-0.884938
-0.973751
-0.982685
-0.940298
-0.868033
-0.781109
-0.689771
-0.600545
-0.517272
-0.441921
-0.37522
-0.317083
-0.266896
-0.223781
-0.186486
-0.15389
-0.122979
-0.0949587
-0.0528995
-0.045937
6.80594
6.52208
5.93055
5.08123
4.06617
2.98556
1.94767
1.04192
0.31658
-0.220813
-0.587448
-0.811832
-0.925999
-0.960369
-0.940693
-0.887169
-0.814784
-0.734131
-0.65229
-0.573694
-0.500867
-0.43501
-0.376355
-0.324624
-0.27883
-0.238003
-0.198821
-0.161725
-0.105635
-0.0785535
85.7446
109.515
192.38
316.172
-54.5089
-34.029
-19.9648
-12.0528
-7.1219
-3.91354
-1.84757
-0.562119
0.200977
0.62228
0.868353
0.945387
0.829174
0.791198
0.729403
0.653923
0.580056
0.510193
0.442178
0.394658
0.294571
0.534996
78.4333
91.7057
167.479
267.015
378.428
-57.3747
-32.5943
-18.9517
-11.318
-6.64286
-3.63147
-1.69432
-0.484908
0.236051
0.634478
0.853625
0.932433
0.830889
0.785734
0.722856
0.647556
0.573753
0.504018
0.437048
0.386121
0.304608
0.487028
67.5514
69.2634
121.639
186.256
225.56
-55.5671
-29.434
-16.7371
-9.78321
-5.64513
-3.03515
-1.36581
-0.319215
0.309192
0.656266
0.826211
0.901657
0.815897
0.766829
0.703161
0.629606
0.557499
0.489266
0.423857
0.372173
0.295175
0.454076
54.6276
53.2221
64.7347
109.411
91.1102
20.7098
-93.7816
-89.9132
-46.4838
-24.9749
-14.0517
-8.04071
-4.52556
-2.35896
-0.990873
-0.134393
0.382207
0.668743
0.771997
0.849989
0.785126
0.735337
0.671778
0.601428
0.532417
0.466831
0.403752
0.352266
0.277725
0.412869
42.2805
40.953
42.0174
43.8322
46.7991
0.0433523
-39.87
-42.3134
-27.7673
-16.6824
-9.75994
-5.57454
-3.03878
-1.47537
-0.499631
0.104295
0.464238
0.650937
0.702362
0.781854
0.736775
0.689826
0.628344
0.562835
0.498444
0.436826
0.377112
0.326743
0.255048
0.363171
31.2412
30.1159
28.8404
25.6403
12.6061
-5.62908
-19.0179
-19.9697
-14.2618
-9.01293
-5.42887
-3.0773
-1.55821
-0.591627
0.0138771
0.38113
0.5894
0.684333
0.738867
0.713767
0.676932
0.62938
0.573155
0.514341
0.456068
0.399779
0.344586
0.296382
0.228439
0.308328
22.3844
21.2792
19.3474
15.0183
7.19083
-3.64701
-11.0935
-12.3237
-9.40231
-6.37456
-4.04785
-2.36404
-1.21038
-0.449986
0.0376932
0.338835
0.512914
0.596991
0.620903
0.624633
0.595762
0.554896
0.50732
0.456885
0.406177
0.356525
0.307046
0.262186
0.19925
0.251484
15.8783
14.7997
12.7752
8.71558
3.18811
-3.16694
-7.10832
-7.87686
-6.38231
-4.58858
-3.04131
-1.8356
-0.966784
-0.373051
0.0188
0.267168
0.414847
0.49168
0.521716
0.523302
0.502067
0.470462
0.432665
0.391727
0.349788
0.307952
0.265381
0.22517
0.168775
0.195569
11.4338
10.3443
8.33472
4.80717
0.839514
-2.97805
-5.13273
-5.49463
-4.59286
-3.42851
-2.35734
-1.48355
-0.827286
-0.361105
-0.0432681
0.165184
0.294333
0.366714
0.400617
0.408081
0.397595
0.377011
0.350181
0.319826
0.287721
0.254782
0.220303
0.186156
0.138084
0.143142
8.66332
7.51041
5.49183
2.50177
-0.36802
-2.73333
-3.95127
-4.08508
-3.48121
-2.68362
-1.92133
-1.27695
-0.775289
-0.40481
-0.142294
0.0370589
0.154356
0.226084
0.265645
0.282679
0.284085
0.275615
0.260748
0.241866
0.220488
0.197425
0.1722
0.145606
0.107877
0.0961806
7.17513
5.92736
3.89695
1.40503
-0.718643
-2.27804
-3.03883
-3.10729
-2.71772
-2.17816
-1.63932
-1.16634
-0.782974
-0.487406
-0.268219
-0.110683
-0.000728755
0.0731522
0.120459
0.148469
0.162528
0.167012
0.164862
0.15815
0.148232
0.135898
0.121034
0.103504
0.0783549
0.0559583
6.59566
5.26874
3.30939
1.28032
-0.356114
-1.5224
-2.13576
-2.27702
-2.09885
-1.78312
-1.43423
-1.10646
-0.823928
-0.59308
-0.411399
-0.271984
-0.167023
-0.0895128
-0.0333589
0.00640983
0.0336752
0.051663
0.0627356
0.0686828
0.0707654
0.0698386
0.0663081
0.059274
0.0490747
0.0229393
6.57043
5.25887
3.53636
1.91894
0.566848
-0.472186
-1.13407
-1.45016
-1.50745
-1.41556
-1.2513
-1.06255
-0.876906
-0.708693
-0.563369
-0.441395
-0.340986
-0.259562
-0.194306
-0.142527
-0.101857
-0.0701395
-0.0456158
-0.0267675
-0.0123941
-0.00151634
0.00699578
0.0116479
0.0186721
-0.00343817
6.73499
5.6439
4.32301
3.03714
1.83006
0.777341
-0.0311647
-0.57562
-0.887678
-1.0288
-1.05508
-1.00995
-0.925347
-0.822946
-0.716397
-0.613674
-0.519076
-0.434607
-0.360825
-0.297417
-0.243618
-0.198358
-0.160509
-0.128871
-0.102275
-0.079637
-0.0588888
-0.0418385
-0.016129
-0.0257747
6.72498
6.10831
5.22802
4.20334
3.10176
2.02245
1.071
0.310959
-0.241784
-0.608367
-0.823908
-0.925293
-0.946209
-0.914416
-0.851046
-0.771288
-0.685514
-0.600451
-0.520163
-0.44684
-0.3814
-0.323925
-0.273937
-0.230662
-0.192931
-0.15967
-0.127938
-0.0988857
-0.05581
-0.0472239
6.63282
6.37095
5.81018
4.99529
4.01675
2.97174
1.96363
1.07876
0.365029
-0.168376
-0.536452
-0.765719
-0.886555
-0.928141
-0.915435
-0.868184
-0.801163
-0.724908
-0.646545
-0.570599
-0.499706
-0.435184
-0.377373
-0.326081
-0.280401
-0.239414
-0.19988
-0.162223
-0.105787
-0.0777708
68.5347
71.2027
110.503
184.021
205.649
-149.376
-54.6656
-28.6998
-16.2171
-9.45615
-5.45221
-2.92857
-1.31253
-0.297208
0.314043
0.654383
0.808027
0.895776
0.811317
0.767136
0.702912
0.629617
0.557865
0.489869
0.423671
0.37519
0.279058
0.487108
63.0437
63.4904
90.6208
159.207
168.496
25.4869
-136.33
-52.6517
-27.663
-15.5737
-9.01291
-5.15487
-2.74411
-1.20727
-0.242421
0.338914
0.662596
0.799228
0.88252
0.806895
0.758633
0.694302
0.621598
0.550369
0.482845
0.417863
0.366591
0.287453
0.443478
54.6277
53.2188
64.7409
109.532
91.4011
20.1797
-93.5028
-90.454
-46.5944
-25.0037
-14.0524
-8.03498
-4.52066
-2.35607
-0.989424
-0.133734
0.382486
0.668854
0.772075
0.850093
0.785217
0.735423
0.671863
0.60151
0.532496
0.466905
0.403818
0.35232
0.277763
0.412901
44.6492
42.8845
43.6284
49.3097
55.3106
0.759485
-56.461
-57.6944
-36.3812
-20.8941
-11.9485
-6.80186
-3.76319
-1.90483
-0.742749
-0.0185979
0.41831
0.661566
0.720141
0.796679
0.747557
0.698988
0.637301
0.570824
0.505462
0.443015
0.382694
0.332013
0.26036
0.374515
34.761
33.377
31.9467
30.4245
15.8451
-1.73366
-25.4177
-29.7045
-21.7443
-13.8608
-8.34958
-4.82328
-2.62468
-1.25366
-0.395598
0.136019
0.453744
0.62094
0.65522
0.726576
0.692897
0.648781
0.590834
0.529815
0.469582
0.41158
0.355071
0.306168
0.237901
0.328234
25.991
24.8647
23.0439
19.2512
9.48705
-4.55235
-14.1003
-15.173
-11.4726
-7.58317
-4.6835
-2.69003
-1.37031
-0.517474
0.0221197
0.352183
0.541296
0.629826
0.681496
0.658275
0.627801
0.584695
0.533209
0.479339
0.425622
0.373346
0.321759
0.275665
0.211697
0.277179
18.9219
17.9274
16.0483
12.0011
5.18534
-3.14568
-8.88217
-9.84103
-7.84552
-5.49749
-3.56195
-2.11411
-1.09999
-0.420688
0.0201613
0.295487
0.456831
0.536877
0.561551
0.566789
0.54357
0.508083
0.46581
0.420576
0.374674
0.32931
0.283751
0.241577
0.1831
0.224294
13.6685
12.752
10.954
7.28169
2.38612
-2.77215
-6.00281
-6.62845
-5.53011
-4.07331
-2.7524
-1.69769
-0.922131
-0.382623
-0.0218777
0.210211
0.350935
0.426754
0.458984
0.464326
0.448859
0.422926
0.390628
0.354964
0.317911
0.280494
0.242034
0.204967
0.153396
0.172337
10.0576
9.15001
7.40743
4.23462
0.688241
-2.56958
-4.44126
-4.78067
-4.0874
-3.11633
-2.18745
-1.41258
-0.819848
-0.391325
-0.0947028
0.103107
0.228505
0.301512
0.33849
0.350402
0.345408
0.330337
0.308864
0.283619
0.256282
0.227724
0.197398
0.166694
0.123647
0.12372
7.81588
6.85355
5.09863
2.40251
-0.202479
-2.31003
-3.43528
-3.60734
-3.14258
-2.47433
-1.81082
-1.23718
-0.781962
-0.440105
-0.193708
-0.0223672
0.0923358
0.16497
0.207504
0.228675
0.234944
0.231459
0.22149
0.207315
0.190386
0.171489
0.150291
0.127256
0.0945528
0.0803224
6.6409
5.58651
3.80043
1.53965
-0.418073
-1.86412
-2.61444
-2.74346
-2.45873
-2.01535
-1.55184
-1.13397
-0.78806
-0.516425
-0.311372
-0.161269
-0.0541758
0.0198765
0.0692531
0.100466
0.118407
0.12702
0.129032
0.1264
0.120419
0.11186
0.100725
0.0866719
0.0663201
0.0433606
6.22748
5.08982
3.34387
1.4877
-0.040616
-1.15428
-1.78174
-1.9805
-1.88175
-1.63974
-1.35066
-1.06806
-0.817692
-0.608492
-0.440535
-0.309143
-0.208176
-0.131875
-0.0750749
-0.033461
-0.00359073
0.0174051
0.0316759
0.0408844
0.0462224
0.0485149
0.0482502
0.0444095
0.0385356
0.0132836
6.27368
5.135
3.58285
2.09025
0.816858
-0.185335
-0.854977
-1.2096
-1.32092
-1.28247
-1.16426
-1.01232
-0.854539
-0.706403
-0.574914
-0.462011
-0.367119
-0.288615
-0.224425
-0.172416
-0.130624
-0.0972071
-0.0706178
-0.0494789
-0.0326746
-0.0192729
-0.00810705
-0.000729687
0.00989524
-0.0104425
6.45997
5.5048
4.3039
3.10865
1.96886
0.95811
0.161835
-0.394562
-0.733686
-0.907027
-0.964711
-0.947345
-0.885721
-0.801433
-0.708608
-0.615917
-0.528359
-0.44857
-0.377651
-0.31573
-0.262392
-0.216845
-0.17817
-0.145317
-0.117218
-0.0928602
-0.0701919
-0.0510416
-0.0226967
-0.0302919
6.46736
5.92618
5.11945
4.16145
3.12053
2.09086
1.17166
0.42557
-0.128271
-0.50552
-0.736619
-0.855196
-0.892792
-0.875945
-0.825257
-0.755811
-0.678116
-0.599157
-0.523296
-0.453019
-0.389515
-0.333102
-0.283493
-0.240065
-0.201767
-0.16761
-0.134725
-0.104285
-0.0596479
-0.0492852
6.39241
6.16007
5.64047
4.87309
3.94547
2.95017
1.98403
1.12906
0.432356
-0.0947718
-0.46435
-0.700114
-0.830112
-0.881766
-0.878876
-0.840522
-0.781152
-0.711208
-0.637858
-0.56575
-0.497675
-0.435112
-0.378549
-0.327921
-0.28243
-0.241238
-0.201209
-0.162801
-0.105822
-0.0768392
52.6219
51.4699
59.7954
85.935
69.7164
11.0657
-64.6111
-61.6766
-35.0023
-19.8115
-11.3154
-6.43695
-3.54158
-1.76123
-0.64695
0.0438804
0.455177
0.666458
0.74053
0.82764
0.774414
0.72854
0.664125
0.594782
0.526768
0.461999
0.398638
0.350031
0.258499
0.42956
48.6071
47.5062
52.2775
74.5871
59.741
10.0957
-56.5977
-54.8585
-32.7365
-18.8541
-10.8368
-6.16358
-3.37719
-1.66543
-0.595924
0.0667355
0.461533
0.666488
0.733394
0.816477
0.764654
0.717229
0.65359
0.585189
0.518105
0.45413
0.392157
0.341412
0.26503
0.390992
42.2785
40.9439
42.0031
43.8518
46.896
-0.0875977
-40.2403
-42.5498
-27.8715
-16.7181
-9.76934
-5.57431
-3.03609
-1.4729
-0.497995
0.105237
0.464748
0.651226
0.702541
0.78218
0.737046
0.690077
0.628582
0.56306
0.498655
0.437017
0.377279
0.32688
0.255143
0.363252
34.7596
33.3734
31.9397
30.4141
15.8315
-1.80825
-25.5296
-29.7799
-21.7842
-13.8774
-8.35552
-4.82453
-2.62427
-1.25294
-0.395033
0.136372
0.453943
0.621059
0.655301
0.726787
0.693069
0.648938
0.590982
0.529953
0.469709
0.411695
0.35517
0.30625
0.237957
0.328281
27.3348
26.1698
24.2714
20.6609
10.2383
-2.32982
-15.3013
-19.146
-15.5269
-10.6656
-6.72865
-3.98773
-2.19528
-1.04948
-0.323886
0.128867
0.401535
0.549675
0.574444
0.655306
0.632927
0.594203
0.541616
0.486633
0.431982
0.378872
0.326625
0.280184
0.215951
0.286133
20.7494
19.7935
17.9705
14.0524
6.46785
-3.75032
-9.92193
-10.9515
-8.76695
-6.07762
-3.87299
-2.26883
-1.16907
-0.442494
0.0240802
0.312973
0.480811
0.563406
0.611042
0.588091
0.563811
0.526788
0.481756
0.434333
0.386552
0.339537
0.292629
0.249674
0.190435
0.239658
15.3958
14.5901
12.9375
9.25754
3.69233
-2.68097
-6.76516
-7.59714
-6.31879
-4.58947
-3.0558
-1.86126
-0.999116
-0.407757
-0.0171409
0.231275
0.380148
0.457551
0.485566
0.493867
0.477253
0.448608
0.413153
0.37453
0.334745
0.294878
0.254314
0.215873
0.162752
0.19156
11.3797
10.6616
9.15991
5.91985
1.79756
-2.32491
-4.84864
-5.40085
-4.64264
-3.51604
-2.43842
-1.55004
-0.879878
-0.402339
-0.0768954
0.136849
0.270007
0.345174
0.380679
0.39085
0.382334
0.363409
0.337959
0.308864
0.27792
0.246071
0.21278
0.179902
0.134169
0.144388
8.61272
7.90847
6.46836
3.68902
0.62708
-2.09759
-3.67608
-4.01832
-3.52872
-2.76181
-1.99206
-1.33069
-0.812008
-0.428595
-0.157439
0.0274126
0.148099
0.221689
0.262267
0.279466
0.280984
0.27256
0.257614
0.238631
0.217174
0.194065
0.168909
0.142666
0.105734
0.100383
6.91361
6.15925
4.69513
2.32826
0.0269309
-1.82031
-2.84461
-3.0675
-2.74963
-2.22492
-1.67554
-1.18536
-0.786223
-0.479627
-0.253567
-0.0926788
0.0182197
0.0914052
0.137123
0.162991
0.174893
0.177301
0.1732
0.164717
0.153214
0.139444
0.123223
0.104706
0.07814
0.0612996
6.06087
5.2174
3.70228
1.70327
-0.0613455
-1.38545
-2.12081
-2.31852
-2.14856
-1.81466
-1.43973
-1.08802
-0.788127
-0.546543
-0.359757
-0.219671
-0.11691
-0.0433579
0.00797443
0.0426439
0.0649646
0.0783621
0.0852847
0.0875283
0.0863054
0.0823523
0.0757963
0.0660865
0.0516054
0.0282835
5.81572
4.88609
3.38025
1.72251
0.322065
-0.7297
-1.36803
-1.62929
-1.61845
-1.46102
-1.24255
-1.01443
-0.80365
-0.621692
-0.471457
-0.350785
-0.255527
-0.181416
-0.124413
-0.0810171
-0.0483386
-0.023947
-0.00596849
0.00708931
0.0163233
0.0225123
0.0262346
0.0263332
0.0257498
0.00176344
5.93064
4.98371
3.62596
2.27867
1.09967
0.143872
-0.529271
-0.924049
-1.09471
-1.11724
-1.05312
-0.945343
-0.821655
-0.698562
-0.584684
-0.483604
-0.39615
-0.321833
-0.259471
-0.207615
-0.164799
-0.129574
-0.100661
-0.0768655
-0.0571844
-0.0407547
-0.0263684
-0.0156676
-0.000654025
-0.01876
6.13496
5.33163
4.26905
3.18046
2.12166
1.16329
0.385773
-0.180424
-0.54798
-0.757341
-0.8514
-0.866973
-0.833162
-0.771171
-0.695514
-0.615573
-0.537122
-0.463527
-0.396526
-0.336781
-0.284301
-0.238638
-0.199133
-0.164928
-0.135086
-0.108688
-0.0837055
-0.0620216
-0.0304905
-0.0356105
6.15971
5.70313
4.98163
4.10257
3.13444
2.16532
1.28694
0.560257
0.00769592
-0.380372
-0.62891
-0.767525
-0.825021
-0.826311
-0.79122
-0.734604
-0.667073
-0.595877
-0.525714
-0.459419
-0.398503
-0.343567
-0.294562
-0.251055
-0.21214
-0.176937
-0.142674
-0.110581
-0.0640826
-0.0516354
6.10348
5.90455
5.433
4.72224
3.85584
2.92062
2.00576
1.18793
0.513081
-0.00531036
-0.375847
-0.618929
-0.759753
-0.823554
-0.832663
-0.805284
-0.755425
-0.693374
-0.626333
-0.559085
-0.494601
-0.434549
-0.379603
-0.329852
-0.284636
-0.243218
-0.202594
-0.163295
-0.105691
-0.0755955
38.331
37.4237
37.2277
35.0711
20.6129
-2.3382
-28.3494
-27.0354
-18.2262
-10.9792
-6.4693
-3.64451
-1.86065
-0.738452
-0.039121
0.383452
0.62268
0.730037
0.787625
0.76481
0.724178
0.673497
0.612964
0.549554
0.48693
0.426858
0.367543
0.319846
0.23402
0.366133
35.6059
34.6075
33.7105
29.88
17.1116
-1.73604
-25.0392
-24.1914
-16.6961
-10.2463
-6.0692
-3.41835
-1.73436
-0.672251
-0.01007
0.390097
0.616243
0.718597
0.776928
0.750884
0.710232
0.660077
0.600733
0.538603
0.477247
0.418244
0.360466
0.311294
0.238598
0.333077
31.2367
30.1067
28.8247
25.6258
12.5898
-5.75983
-19.1464
-20.0628
-14.3038
-9.02835
-5.4336
-3.07765
-1.55694
-0.590028
0.015349
0.382358
0.590398
0.685161
0.739555
0.714391
0.677478
0.62988
0.573621
0.514774
0.456466
0.400136
0.344895
0.296635
0.228615
0.308474
25.9869
24.8584
23.0337
19.2356
9.4651
-4.61569
-14.1626
-15.2169
-11.4933
-7.59166
-4.68655
-2.69058
-1.36979
-0.516617
0.0230028
0.35298
0.541984
0.630425
0.68201
0.658761
0.628228
0.585086
0.533571
0.479673
0.425927
0.373619
0.321994
0.275858
0.211831
0.277289
20.747
19.7904
17.966
14.0456
6.45799
-3.773
-9.94372
-10.9682
-8.77624
-6.08232
-3.87529
-2.26975
-1.16929
-0.442396
0.0243008
0.313221
0.481051
0.563631
0.611242
0.588357
0.564054
0.527011
0.481962
0.434523
0.386724
0.339691
0.292761
0.249782
0.19051
0.239719
16.0486
15.2832
13.679
9.99726
4.10489
-2.90958
-7.04031
-7.85495
-6.50999
-4.68069
-3.07641
-1.84728
-0.970938
-0.375101
0.0153057
0.261198
0.406493
0.479952
0.511845
0.50542
0.487315
0.457439
0.420588
0.380917
0.340238
0.299581
0.258353
0.219508
0.16595
0.198316
12.1882
11.5724
10.2057
6.9506
2.47705
-2.24165
-5.1061
-5.75953
-4.94571
-3.71396
-2.54897
-1.60183
-0.894968
-0.395748
-0.0586624
0.16052
0.295385
0.369495
0.403441
0.409645
0.399717
0.378996
0.351572
0.320665
0.288043
0.254671
0.220043
0.186265
0.139468
0.155525
9.27243
8.74326
7.538
4.74204
1.34646
-1.88167
-3.82368
-4.30707
-3.80593
-2.96797
-2.12284
-1.40087
-0.839224
-0.427743
-0.140118
0.0536529
0.1784
0.252696
0.292193
0.306955
0.305954
0.294872
0.277206
0.255607
0.231683
0.206294
0.179045
0.151233
0.112307
0.113664
7.26815
6.75555
5.60381
3.22052
0.631904
-1.61301
-2.93332
-3.28356
-2.96999
-2.39557
-1.7852
-1.24167
-0.802119
-0.468387
-0.22583
-0.0559194
0.0589137
0.132563
0.176716
0.199574
0.208041
0.206874
0.199175
0.187211
0.172407
0.155531
0.136335
0.115364
0.0854932
0.0747797
6.06312
5.50626
4.32077
2.28566
0.291033
-1.30999
-2.23965
-2.51393
-2.33416
-1.95243
-1.52207
-1.12145
-0.784421
-0.51788
-0.315729
-0.167678
-0.0620998
0.0107857
0.0593393
0.0899374
0.107689
0.11639
0.11868
0.116479
0.111038
0.103064
0.0925176
0.0792472
0.0597112
0.0404891
5.50184
4.86153
3.61179
1.87947
0.315711
-0.885178
-1.60219
-1.8666
-1.80902
-1.58735
-1.30677
-1.02746
-0.779359
-0.572552
-0.407654
-0.280149
-0.183463
-0.111506
-0.0588178
-0.020929
0.00577966
0.0241655
0.0363376
0.0438882
0.047919
0.0491185
0.0477373
0.0430019
0.0351921
0.0118555
5.40403
4.67764
3.41262
1.96046
0.696722
-0.286835
-0.929907
-1.2504
-1.32651
-1.25644
-1.11349
-0.945242
-0.779105
-0.628686
-0.499585
-0.392188
-0.304477
-0.233813
-0.177401
-0.132666
-0.0973616
-0.0695558
-0.0477026
-0.0305204
-0.0170334
-0.00652774
0.0016627
0.00621872
0.0115949
-0.0107153
5.57304
4.8158
3.6569
2.46289
1.38697
0.485211
-0.184697
-0.615497
-0.844076
-0.929118
-0.922425
-0.862888
-0.77734
-0.682924
-0.589699
-0.502855
-0.424682
-0.3559
-0.296306
-0.245214
-0.20173
-0.164848
-0.133606
-0.107031
-0.084254
-0.0645056
-0.0465402
-0.0321217
-0.0122192
-0.0276829
5.78641
5.1347
4.21554
3.24097
2.27116
1.37289
0.620961
0.0498506
-0.343608
-0.588849
-0.720865
-0.771911
-0.768793
-0.731937
-0.676006
-0.61099
-0.543416
-0.4774
-0.415359
-0.358537
-0.307419
-0.261947
-0.221757
-0.186219
-0.154546
-0.125943
-0.0984127
-0.0739281
-0.038901
-0.041204
5.82496
5.45325
4.82087
4.02675
3.13841
2.23696
1.40602
0.704035
0.156275
-0.24099
-0.506933
-0.66665
-0.745754
-0.767162
-0.749662
-0.707722
-0.651966
-0.589877
-0.526492
-0.465011
-0.407296
-0.354262
-0.306127
-0.262675
-0.223168
-0.18686
-0.151097
-0.117189
-0.0686998
-0.0539473
5.7866
5.62145
5.20062
4.55126
3.75207
2.88329
2.02587
1.25049
0.601462
0.0942842
-0.276133
-0.526557
-0.678994
-0.756185
-0.778735
-0.763796
-0.724815
-0.671862
-0.612145
-0.550577
-0.49032
-0.43325
-0.380244
-0.331566
-0.286715
-0.245073
-0.203803
-0.163513
-0.105299
-0.0739812
26.9552
25.8043
23.9794
20.1375
11.5193
-5.22024
-14.106
-16.3122
-11.6219
-7.57729
-4.73431
-2.73712
-1.39922
-0.530092
0.0229591
0.362483
0.55793
0.651902
0.679193
0.683223
0.648476
0.602855
0.550174
0.494566
0.439005
0.385089
0.331114
0.285566
0.206853
0.300394
25.2002
24.0412
22.0317
17.7602
9.58472
-4.99536
-12.7563
-14.743
-10.8047
-7.11994
-4.45966
-2.58073
-1.3133
-0.486848
0.0395721
0.362727
0.548363
0.637085
0.661803
0.665199
0.632352
0.587871
0.536649
0.482598
0.428536
0.375899
0.323569
0.277189
0.209484
0.27304
22.3761
21.2683
19.3313
14.9965
7.16429
-3.72995
-11.169
-12.3829
-9.43175
-6.38696
-4.05211
-2.36425
-1.20893
-0.448063
0.0395666
0.340497
0.514347
0.598234
0.621999
0.625628
0.596662
0.555721
0.508081
0.457584
0.406813
0.357092
0.307534
0.262585
0.199527
0.251711
18.9148
17.9185
16.0363
11.9842
5.16288
-3.19415
-8.92645
-9.87467
-7.86294
-5.50518
-3.56469
-2.11424
-1.09902
-0.419324
0.021546
0.296761
0.457964
0.537883
0.562453
0.567618
0.544323
0.508773
0.466446
0.421159
0.375203
0.329781
0.284156
0.241907
0.18333
0.224483
15.3908
14.5843
12.9299
9.24747
3.67931
-2.7044
-6.78668
-7.61389
-6.32824
-4.59401
-3.05758
-1.86145
-0.998581
-0.406937
-0.0162609
0.232117
0.380919
0.458252
0.486202
0.494462
0.477798
0.44911
0.413615
0.374953
0.335129
0.295219
0.254607
0.216112
0.162919
0.191696
12.1857
11.5696
10.2024
6.94634
2.47183
-2.24978
-5.11367
-5.76553
-4.94931
-3.71575
-2.54965
-1.60186
-0.894684
-0.395336
-0.0582194
0.160949
0.295785
0.369863
0.40378
0.40996
0.400007
0.379263
0.351819
0.320891
0.288248
0.254853
0.220199
0.186393
0.139557
0.155598
9.52678
9.05899
7.93922
5.14473
1.62801
-1.79713
-3.87719
-4.4171
-3.91186
-3.0459
-2.17226
-1.42797
-0.85069
-0.428976
-0.13536
0.0616256
0.187844
0.262357
0.301516
0.315228
0.313792
0.301985
0.283475
0.261057
0.236352
0.210239
0.18233
0.154044
0.11453
0.118363
7.51104
7.13123
6.16545
3.79512
1.04444
-1.44837
-2.96035
-3.39961
-3.09688
-2.49746
-1.85378
-1.28051
-0.81815
-0.468749
-0.216572
-0.0412453
0.0762261
0.150567
0.194283
0.215918
0.223046
0.220332
0.211014
0.197469
0.181152
0.162853
0.142314
0.120292
0.0890422
0.082066
6.13708
5.78035
4.86365
2.84805
0.69068
-1.14283
-2.25333
-2.61556
-2.45096
-2.04832
-1.58599
-1.15496
-0.793515
-0.510045
-0.297195
-0.14314
-0.0348746
0.0384119
0.0859608
0.11466
0.13017
0.136467
0.136322
0.131749
0.124035
0.113891
0.101216
0.0861339
0.0640912
0.0485482
5.33976
4.94872
3.99908
2.27217
0.565729
-0.812782
-1.65846
-1.97912
-1.92221
-1.67402
-1.35929
-1.04825
-0.775343
-0.551391
-0.375616
-0.242385
-0.143645
-0.0721332
-0.0214393
0.0135343
0.0369421
0.0519108
0.0607071
0.0650078
0.0659341
0.0641389
0.0597194
0.0522068
0.040353
0.0192746
5.01387
4.54928
3.53422
2.05324
0.683981
-0.397653
-1.09265
-1.41529
-1.46
-1.34549
-1.1585
-0.95325
-0.759736
-0.590762
-0.450549
-0.337924
-0.249106
-0.180078
-0.126975
-0.0864668
-0.0557468
-0.0325557
-0.0151598
-0.00220739
0.00727033
0.0138979
0.0180417
0.0186872
0.0180724
-0.00477954
5.02742
4.48116
3.43706
2.18263
1.05529
0.143367
-0.496623
-0.867433
-1.02281
-1.03642
-0.968608
-0.861842
-0.742877
-0.626792
-0.521416
-0.429501
-0.351119
-0.285277
-0.230476
-0.185117
-0.147668
-0.116734
-0.0911352
-0.0698328
-0.0519956
-0.036993
-0.0240811
-0.0147626
-0.00304631
-0.0232346
5.22814
4.64215
3.67073
2.62728
1.65668
0.814176
0.155271
-0.303619
-0.583796
-0.727991
-0.777938
-0.767556
-0.721962
-0.658389
-0.587953
-0.517256
-0.449975
-0.388026
-0.332204
-0.282621
-0.239001
-0.200815
-0.167447
-0.138173
-0.112283
-0.0891184
-0.0674106
-0.0490634
-0.0240444