/*--------------------------------*- C++ -*----------------------------------*\
  =========                 |
  \\      /  F ield         | OpenFOAM: The Open Source CFD Toolbox
   \\    /   O peration     | Website:  https://openfoam.org
    \\  /    A nd           | Version:  7
     \\/     M anipulation  |
\*---------------------------------------------------------------------------*/
FoamFile
{
    version     2.0;
    format      ascii;
    class       surfaceScalarField;
    location    "600";
    object      phi;
}
// * * * * * * * * * * * * * * * * * * * * * * * * * * * * * * * * * * * * * //

dimensions      [0 3 -1 0 0 0 0];

internalField   nonuniform List<scalar> 
81175
(
525.054
8.76052
8.72126
113.18
32.2458
32.1276
115.168
115.324
117.009
93.5163
9.84382
9.81952
-14.6345
3.03793
3.45972
1.99902
2.18304
1.71138
2.24336
2.29726
-0.639589
-0.757039
-0.900638
-5.83314
-1.10831
-1.1762
8.11765
-14.0439
15.683
-0.809852
-0.829284
-19.7117
20.8
-0.54121
-0.547109
-23.4684
24.1932
-0.361326
-0.363472
-25.99
26.4851
-0.247026
-0.247995
-27.7306
28.0793
-0.174079
-0.174618
-28.9698
29.2229
-0.126381
-0.126734
-29.8782
30.067
-0.0942969
-0.0945578
-30.5649
123.415
-0.553316
-0.554928
-30.5767
-30.5767
-30.5884
504.576
-3.16253
-3.17281
-124.42
-124.561
-124.561
-124.698
509.726
-2.57057
-2.57963
513.937
-2.1013
-2.1094
517.419
-1.73747
-1.74481
520.33
-1.45228
-1.45898
522.788
-1.22582
-1.23197
524.881
-1.0434
-1.04908
526.675
-0.894467
-0.899718
528.211
-0.765709
-0.770573
529.549
-0.666422
-0.670937
-0.523162
-0.527403
529.709
14.4434
7.59941
118.567
50.6907
27.1086
122.254
120.051
123.284
-17.9314
104.563
23.6196
8.31538
-11.0158
-19.6579
13.0944
2.57159
3.89411
3.58307
3.63156
3.89909
-2.37813
3.78721
-5.49326
-1.0271
5.11128
-12.0628
4.19649
-1.02997
-4.94947
13.8458
2.85042
-18.0892
19.2282
-3.29894
-0.690483
1.91541
-22.0575
22.8411
-2.23526
-0.463744
1.30768
-24.8213
25.3771
-1.54562
-0.317871
0.913409
-26.7953
27.1971
-1.09212
-0.223114
0.654629
-28.2316
28.5274
-0.78988
-0.160604
0.481281
-29.296
29.518
-0.584755
-0.118499
0.362386
-30.1
30.2698
-0.442702
-0.0895068
-30.7298
1.07603
124.053
-1.55351
-0.526549
-30.7841
-30.7407
-30.7947
506.729
-5.85219
-2.99869
-125.005
-125.389
-125.136
-125.511
511.406
-4.7951
-2.4531
515.277
-3.95455
-2.01696
518.507
-3.29131
-1.67602
521.227
-2.76618
-1.40692
523.539
-2.3459
-1.19195
525.519
-2.00506
-1.01794
527.224
-1.72412
-0.875207
528.694
-1.48377
-0.751612
529.964
-1.28014
-0.65678
-1.0525
-0.51404
535.602
16.5544
6.02753
126.056
54.5314
20.0228
129.141
126.848
129.694
-26.3317
119.549
26.9678
5.87065
-14.8847
-27.0658
25.359
14.7919
1.79969
-0.186608
0.876773
-0.746834
0.0579025
-19.5467
8.91177
-8.70843
-1.01883
20.3622
5.70738
-22.123
-0.649094
22.6414
-5.57662
3.87288
-24.0898
24.536
-3.86734
-0.451782
2.74971
-25.7677
26.1428
-2.79966
-0.325124
1.99431
-27.1669
27.476
-2.06554
-0.237842
1.4684
-28.3135
28.5646
-1.54315
-0.176337
1.09776
-29.2419
29.4442
-1.16748
-0.132591
0.833905
-29.989
30.1516
-0.895373
-0.101204
0.64403
-30.5902
30.7216
-0.696936
-0.0784784
-31.0925
1.95436
125.353
-2.29036
-0.469504
-31.1725
-31.1015
-31.1811
510.547
-7.78232
-2.69748
-126.162
-126.692
-126.273
-126.792
514.44
-6.45757
-2.2305
517.726
-5.38894
-1.8522
520.517
-4.52991
-1.55208
522.902
-3.83887
-1.31213
524.953
-3.27881
-1.11845
526.728
-2.8198
-0.960313
528.271
-2.43768
-0.829626
529.613
-2.10966
-0.715929
530.786
-1.82477
-0.628318
-1.52432
-0.49445
540.839
16.2543
4.58656
530.973
50.1713
14.2263
129.682
97.4214
28.5549
-26.4715
-35.9781
-25.599
-34.5275
133.614
130.444
133.834
-53.7852
131.703
44.3985
7.36516
-23.408
-34.0449
36.1841
19.4485
1.82056
4.65853
-4.72365
0.0653503
12.0776
-29.0632
28.483
-10.5165
-0.980897
7.00743
-27.8311
-0.530204
27.7579
-6.40409
4.80242
-27.7927
27.8632
-4.50702
-0.365868
3.56046
-28.1735
28.299
-3.41066
-0.275272
2.72608
-28.7054
28.8466
-2.65444
-0.212913
2.11204
-29.2762
29.4177
-2.08731
-0.166201
1.64599
-29.8323
29.9649
-1.64821
-0.130331
1.29027
-30.3447
30.4638
-1.30671
-0.10271
1.0188
-30.8003
30.9047
-1.04165
-0.081475
0.81203
-31.1968
31.2869
-0.836964
-0.0651813
-31.5567
2.53604
127.002
-2.72212
-0.399501
-31.6448
-31.5637
-31.6515
515.331
-8.91174
-2.3328
-127.635
-128.216
-127.723
-128.295
518.33
-7.50208
-1.95487
520.931
-6.3455
-1.64403
523.19
-5.39678
-1.39279
525.16
-4.61941
-1.1885
526.882
-3.97978
-1.02137
528.394
-3.44891
-0.883349
529.727
-3.0021
-0.768227
530.901
-2.61589
-0.667367
531.941
-2.2759
-0.589219
-1.92225
-0.468458
544.531
14.5775
3.37013
541.905
42.9357
9.8616
136.192
75.2142
17.6282
136.955
136.318
137.02
-36.3522
138.395
30.3606
3.78804
-49.1291
149.499
37.6518
4.86186
-142.883
-10.893
-39.625
40.9097
0.582554
9.02587
-0.379529
-43.0194
42.4286
-0.0814218
1.05169
6.91282
-37.9077
141.262
-16.0711
-2.41552
7.20587
6.77261
7.10637
-37.9742
-37.4488
-37.442
6.37473
-134.034
129.482
-17.6595
-2.40485
6.29693
6.00839
5.93666
4.71259
-126.669
125.088
-14.7621
-1.88958
4.44333
4.67051
4.40623
3.6226
-124.15
123.674
-12.1307
-1.50293
3.45596
3.59749
3.43358
2.90225
-123.462
123.446
-10.0958
-1.22646
2.78298
2.88539
2.76769
2.36312
-123.574
123.801
-8.46027
-1.01319
2.27214
2.35099
2.261
1.93421
-124.11
124.469
-7.09216
-0.83962
1.86061
1.92546
1.85251
1.58304
-124.876
125.301
-5.92995
-0.695136
1.52323
1.57676
1.51738
1.29526
-125.75
126.196
-4.94605
-0.574852
1.24687
1.29076
1.24265
1.06093
-126.65
127.087
-4.12072
-0.475502
1.02192
1.0577
1.01887
0.871469
-127.522
127.933
-3.43671
-0.394399
0.840751
0.869132
0.838502
2.82598
-128.342
128.728
-2.88312
-0.329437
520.455
-9.34948
-1.95911
-129.196
-129.766
-129.266
-129.829
522.608
-7.98977
-1.66562
524.533
-6.84982
-1.42064
526.253
-5.89847
-1.21849
527.788
-5.10358
-1.0509
529.159
-4.4388
-0.911689
530.385
-3.87964
-0.79528
531.484
-3.4037
-0.697209
532.468
-2.98906
-0.610622
533.355
-2.62051
-0.543227
-2.23584
-0.437545
546.761
12.2667
2.40265
547.612
35.2626
6.82188
553.614
57.9405
11.2722
568.579
76.1796
15.018
-25.518
-28.2815
-24.8425
-27.5209
148.054
78.4349
15.6115
-29.7811
-27.8387
-28.8908
-27.0473
146.177
147.83
146.028
-22.4629
150.387
18.3296
1.80042
-5.0001
-150.838
149.204
6.13384
0.500481
556.478
-11.3282
-3.73414
8.95722
11.0845
8.36654
10.5076
-145.873
-144.466
-145.67
-144.323
538.432
-24.2145
-5.80552
12.4559
12.028
11.9536
11.629
527.74
-28.0552
-5.98385
11.7147
10.9514
11.3794
10.6855
521.903
-27.8286
-5.57792
10.2524
9.58034
10.0203
9.3902
518.963
-26.0137
-5.01881
8.85306
8.291
8.68202
8.14647
517.774
-23.6427
-4.44543
7.61865
7.14078
7.48922
7.02878
517.718
-21.1412
-3.89925
6.5249
6.11582
6.42555
6.02942
518.392
-18.6822
-3.39381
5.56236
5.21014
5.48651
5.14395
519.523
-16.3688
-2.93596
4.7206
4.42009
4.66302
4.36962
520.916
-14.2516
-2.52928
3.99395
3.74092
3.95034
3.70244
522.432
-12.3598
-2.17521
3.37509
3.16569
3.34203
3.13647
523.992
-10.6949
-1.86969
2.85625
2.67523
2.82947
2.64327
525.498
-9.24592
-1.60963
526.921
-8.02216
-1.38981
528.247
-6.97358
-1.20313
529.474
-6.07965
-1.04522
530.6
-5.31795
-0.911665
531.631
-4.67057
-0.798976
532.573
-4.11883
-0.703534
533.436
-3.64425
-0.62236
534.225
-3.22779
-0.550192
534.953
-2.85498
-0.493861
-2.46116
-0.403984
547.908
9.85499
1.67462
550.326
28.1602
4.68381
555.895
44.9454
7.42596
565.558
57.0812
9.43564
576.147
58.2576
9.58811
579.503
43.983
6.80389
-15.4452
-11.8339
-15.1761
-11.688
573.026
22.003
2.94206
-6.43533
-2.74727
-6.4262
-2.85948
560.465
1.79757
-0.563935
548.982
-10.36
-2.37173
540.47
-16.4334
-3.10993
534.769
-18.8357
-3.29174
531.155
-19.1983
-3.20179
529.013
-18.5083
-2.99226
527.887
-17.2829
-2.73275
527.474
-15.8099
-2.45903
527.556
-14.262
-2.18921
527.975
-12.7361
-1.93421
528.611
-11.2954
-1.70046
529.374
-9.96779
-1.4901
530.207
-8.77353
-1.3049
531.051
-7.72237
-1.14419
531.883
-6.80117
-1.00437
532.686
-5.99936
-0.88358
533.451
-5.30341
-0.779504
534.174
-4.70289
-0.690346
534.854
-4.18487
-0.613926
535.493
-3.73527
-0.548397
536.094
-3.33869
-0.489859
536.666
-2.98234
-0.444152
-2.59906
-0.369881
548.347
7.63462
1.15165
551.235
22.058
3.21441
556.19
34.9846
5.00553
563.112
43.9486
6.21082
569.853
45.2073
6.30873
572.372
36.5962
4.86763
569.214
22.4421
2.71955
562.178
8.20186
0.631162
554.633
-2.08673
-0.727823
548.206
-8.50622
-1.50072
543.286
-12.0432
-1.87256
539.744
-13.6569
-1.99942
537.293
-14.0708
-1.98662
535.667
-13.7589
-1.89707
534.664
-13.0403
-1.76745
534.123
-12.1016
-1.61945
533.921
-11.0674
-1.46665
533.962
-10.0188
-1.31757
534.174
-9.00296
-1.17682
534.502
-8.05287
-1.04832
534.898
-7.18582
-0.932859
535.334
-6.40678
-0.829973
535.788
-5.7144
-0.739236
536.247
-5.10267
-0.659621
536.702
-4.56733
-0.590423
537.148
-4.10061
-0.53047
537.584
-3.69285
-0.478742
538.011
-3.33252
-0.432478
538.434
-3.00935
-0.396462
-2.6534
-0.336943
548.395
5.72762
0.786124
551.236
16.9993
2.2174
555.515
27.2568
3.44908
560.828
34.3768
4.25875
565.721
35.9395
4.37467
567.95
30.7654
3.60188
566.662
21.37
2.35982
562.675
11.1344
1.05448
557.76
2.76085
0.0673655
553.067
-3.21502
-0.597839
549.087
-7.06471
-0.998761
545.913
-9.27355
-1.20954
543.497
-10.3592
-1.29521
541.704
-10.6642
-1.30212
540.414
-10.4889
-1.2604
539.518
-10.0157
-1.19046
538.93
-9.37402
-1.10572
538.579
-8.65199
-1.0151
538.407
-7.90668
-0.924207
538.368
-7.17758
-0.837076
538.426
-6.48772
-0.755822
538.552
-5.85123
-0.681487
538.726
-5.27349
-0.614465
538.932
-4.75416
-0.554562
539.16
-4.29375
-0.501765
539.404
-3.88882
-0.45559
539.66
-3.53378
-0.415596
539.929
-3.22105
-0.37998
540.216
-2.94395
-0.35246
-2.62937
-0.306437
548.245
4.14599
0.536924
550.814
12.8826
1.54768
554.482
21.1537
2.43535
558.796
27.0326
3.03021
562.739
28.8245
3.17167
564.937
25.8071
2.76082
564.801
19.4899
2.01554
562.694
12.0705
1.17102
559.59
5.4082
0.456941
556.262
0.196108
-0.0831792
553.151
-3.50041
-0.453457
550.482
-5.91902
-0.685476
548.259
-7.32027
-0.816163
546.48
-8.00945
-0.875638
545.081
-8.20228
-0.887093
544
-8.0675
-0.867331
543.181
-7.72703
-0.828216
542.574
-7.26737
-0.778069
542.138
-6.74807
-0.722571
541.838
-6.21119
-0.665816
541.643
-5.6825
-0.610338
541.53
-5.18062
-0.557855
541.481
-4.71509
-0.509294
541.481
-4.28947
-0.464998
541.521
-3.9076
-0.425393
541.592
-3.56946
-0.390465
541.691
-3.27317
-0.360169
541.819
-3.01496
-0.333517
541.981
-2.79327
-0.313187
-2.53204
-0.279219
547.991
2.88621
0.369937
550.206
9.56448
1.10245
553.359
16.2286
1.77265
557.035
21.116
2.24032
560.492
22.9696
2.39806
562.787
21.3226
2.18957
563.433
17.1123
1.73151
562.58
11.7544
1.16931
560.752
6.58832
0.648068
558.487
2.24342
0.2176
556.159
-1.0666
-0.105863
553.963
-3.39045
-0.332437
552.02
-4.89794
-0.479814
550.351
-5.77365
-0.566985
548.949
-6.18911
-0.610472
547.788
-6.28326
-0.623201
546.838
-6.16248
-0.615009
546.07
-5.90558
-0.593213
545.454
-5.56923
-0.563127
544.966
-5.19444
-0.528716
544.583
-4.80733
-0.492597
544.287
-4.42793
-0.456776
544.063
-4.06779
-0.422493
543.896
-3.73283
-0.390434
543.779
-3.42894
-0.361295
543.704
-3.15865
-0.335389
543.667
-2.92324
-0.312927
543.668
-2.72248
-0.293632
543.716
-2.56214
-0.279179
-2.36492
-0.255791
547.703
1.9039
0.258675
549.56
6.8977
0.810159
552.301
12.1471
1.34058
555.575
16.1117
1.7301
558.789
17.8597
1.896
561.215
17.0942
1.80284
562.449
14.3604
1.51753
562.479
10.5907
1.13347
561.608
6.713
0.746293
560.177
3.27166
0.402726
558.491
0.495371
0.124076
556.761
-1.57309
-0.0871666
555.107
-3.00575
-0.238101
553.593
-3.92039
-0.339643
552.246
-4.43889
-0.402794
551.068
-4.66842
-0.4371
550.052
-4.69571
-0.450418
549.183
-4.58768
-0.448962
548.445
-4.39423
-0.43751
547.823
-4.15236
-0.419773
547.3
-3.88639
-0.398339
546.863
-3.61556
-0.375314
546.499
-3.35171
-0.352115
546.198
-3.10178
-0.329644
545.95
-2.8726
-0.308771
545.75
-2.66827
-0.29004
545.593
-2.49277
-0.273801
545.48
-2.34865
-0.260422
545.42
-2.25173
-0.250577
-2.1284
-0.236367
547.405
1.15466
0.182909
548.948
4.7347
0.619847
551.393
8.63868
1.06355
554.436
11.6645
1.4049
557.544
13.1767
1.57512
560.133
12.9538
1.55087
561.82
11.3005
1.37306
562.509
8.79778
1.10411
562.354
6.05849
0.809567
561.596
3.49846
0.530484
560.465
1.33806
0.289082
559.146
-0.347717
0.0937424
557.772
-1.57624
-0.0561659
556.43
-2.41201
-0.165855
555.167
-2.93422
-0.242137
554.009
-3.21894
-0.291813
552.966
-3.33131
-0.321007
552.037
-3.32366
-0.334904
551.217
-3.23628
-0.337729
550.497
-3.09975
-0.332913
549.868
-2.93479
-0.322974
549.321
-2.75804
-0.310042
548.845
-2.58024
-0.295638
548.432
-2.40822
-0.280813
548.075
-2.24864
-0.26655
547.767
-2.10627
-0.25357
547.503
-1.98703
-0.242261
547.283
-1.8949
-0.233601
547.116
-1.85787
-0.227156
-1.81693
-0.220903
547.162
0.591537
0.126311
548.458
2.94028
0.498706
550.694
5.50789
0.895087
553.587
7.56282
1.20878
556.666
8.71309
1.38415
559.42
8.7944
1.40523
561.484
7.93848
1.29789
562.711
6.46631
1.1051
563.149
4.74585
0.874625
562.95
3.05606
0.641289
562.294
1.56719
0.427143
561.346
0.35665
0.243615
560.239
-0.564202
0.0942995
559.072
-1.22269
-0.0220482
557.91
-1.66279
-0.109126
556.794
-1.93155
-0.171549
555.748
-2.07187
-0.214002
554.785
-2.1197
-0.240784
553.908
-2.10362
-0.255631
553.116
-2.04585
-0.261716
552.405
-1.96186
-0.261498
551.768
-1.86424
-0.257106
551.199
-1.76138
-0.250143
550.692
-1.65898
-0.241784
550.239
-1.5625
-0.233089
549.834
-1.47631
-0.224938
549.472
-1.40725
-0.217666
549.148
-1.35845
-0.21286
548.867
-1.36815
-0.208667
-1.41145
-0.209313
547.011
0.198073
0.0729623
548.127
1.39099
0.433149
550.2
2.62593
0.80963
552.973
3.67736
1.1123
556.047
4.33951
1.29974
558.972
4.51033
1.35833
561.389
4.21875
1.30258
563.101
3.59184
1.16314
564.076
2.79379
0.976469
564.396
1.96297
0.773208
564.193
1.19504
0.575404
563.61
0.542865
0.396687
562.778
0.0245894
0.243764
561.801
-0.364188
0.118396
560.758
-0.639589
0.019268
559.705
-0.822349
-0.0565058
558.679
-0.933188
-0.112455
557.702
-0.990449
-0.152168
556.787
-1.00928
-0.178982
555.939
-1.00181
-0.195874
555.159
-0.976742
-0.20527
554.445
-0.94126
-0.209317
553.794
-0.900265
-0.20969
553.2
-0.857307
-0.207697
552.657
-0.81566
-0.204453
552.16
-0.778064
-0.200996
551.7
-0.750015
-0.197586
551.271
-0.732922
-0.196211
550.857
-0.760433
-0.193694
-0.861237
-0.200429
546.948
0.032837
547.936
0.403197
549.78
0.781705
552.36
1.09738
555.381
1.31838
558.464
1.42798
561.253
1.42972
563.501
1.34303
565.099
1.1958
566.047
1.01554
566.417
0.82502
566.319
0.640774
565.87
0.473218
565.178
0.327616
564.333
0.205575
563.405
0.10634
562.444
0.0277616
561.486
-0.0329475
560.556
-0.0787286
559.666
-0.112423
558.826
-0.13653
558.038
-0.153305
557.302
-0.16461
556.617
-0.171971
555.978
-0.176678
555.38
-0.179966
554.812
-0.182184
554.265
-0.185541
553.69
-0.186142
-0.196308
529.76
7.60382
14.3651
118.679
27.1243
50.4852
120.068
122.268
123.264
-17.8068
104.753
8.28395
23.4482
-11.1981
-19.8982
2.68592
12.971
3.96479
3.76309
3.7561
3.95539
-2.64202
4.31926
-1.02356
-6.04325
5.38956
-12.2107
4.37409
-1.00593
-5.1116
13.9541
2.90338
-18.1287
19.2561
-0.680127
-3.35075
1.93335
-22.0676
22.8483
-0.459867
-2.25423
1.31485
-24.8241
25.3792
-0.31626
-1.55366
0.916876
-26.7962
27.1978
-0.222316
-1.09617
0.656642
-28.2318
28.5276
-0.160133
-0.792297
0.482637
-29.2961
29.5181
-0.118178
-0.586408
0.363401
-30.1001
30.2699
-0.0892643
-0.443951
-30.7298
1.07921
124.053
-0.525041
-1.55817
-30.7407
-30.7841
-30.7947
506.729
-2.98911
-5.87194
-125.005
-125.136
-125.389
-125.511
511.406
-2.44458
-4.81264
515.276
-2.00929
-3.97031
518.506
-1.66905
-3.30563
521.227
-1.40053
-2.77928
523.539
-1.18606
-2.35797
525.519
-1.01249
-2.0162
527.224
-0.870156
-1.73444
528.693
-0.746924
-1.49334
529.964
-0.652424
-1.28904
-0.509944
-1.06086
533.223
12.787
12.7598
122.433
43.7959
43.7259
125.152
125.137
127.211
-15.3001
-15.3207
112.384
20.3573
20.3131
-9.46979
-9.54601
-23.2279
19.9903
11.1391
11.1143
-9.90851
4.73895
4.72188
-5.94735
-5.97898
12.374
-17.0831
3.65115
3.59434
-4.16592
-4.21686
18.2204
2.42643
2.39836
-21.0083
21.7874
-2.78799
-2.81591
1.65987
1.64792
-23.7969
24.3746
-1.93638
-1.94917
1.16201
1.15655
-25.8822
26.3186
-1.37438
-1.38057
0.830647
0.827768
-27.461
27.7926
-0.993334
-0.996721
0.606606
0.604837
-28.6635
28.9172
-0.731524
-0.733656
0.452532
0.451297
-29.5864
29.7824
-0.549161
-0.55067
0.344598
0.343653
-30.3023
30.4557
-0.420226
-0.421391
-30.8819
1.02474
1.02176
124.642
-1.47771
-1.48207
-30.9326
-30.9326
-30.9817
508.72
-5.54789
-5.56634
-125.545
-125.904
-125.904
-126.24
512.979
-4.56984
-4.58636
516.542
-3.78758
-3.80251
519.542
-3.16565
-3.17928
522.087
-2.67008
-2.68259
524.264
-2.27142
-2.28298
526.138
-1.9467
-1.95741
527.758
-1.67798
-1.68792
529.164
-1.44774
-1.45697
530.366
-1.25105
-1.25963
-1.03372
-1.04179
537.802
14.9737
10.3709
128.095
48.1876
33.5372
130.515
129.641
131.646
-22.9272
-10.9121
123.404
23.7506
14.7796
-6.32613
-13.0475
51.7646
32.8812
27.6465
29.1547
28.4654
29.9224
-15.4151
-12.3084
-14.4792
-118.707
-7.27311
-5.60446
-6.67382
-4.93076
-7.25801
-6.7954
5.25735
9.44335
4.28305
0.95566
1.87961
-2.64734
3.70537
-2.63144
-1.26202
-22.698
7.41042
3.51097
-7.22402
-4.06542
23.0661
2.30839
4.8148
-24.085
-2.69857
24.4257
-4.76534
1.63285
3.3605
-25.4361
25.7615
-3.39185
-1.92698
1.19345
2.44122
-26.6922
26.9846
-2.50634
-1.42067
0.885714
1.80603
-27.8034
28.0563
-1.88195
-1.06275
0.66485
1.35247
-28.7552
28.9685
-1.42742
-0.80323
0.505034
1.02524
-29.5527
29.7296
-1.0936
-0.613632
0.388652
0.787555
-30.2118
30.3573
-0.847337
-0.474412
0.303262
0.613664
-30.7533
30.873
-0.664997
-0.371627
-31.2195
0.915325
1.86241
125.85
-2.18792
-1.32773
-31.295
-31.2622
-31.3353
512.27
-7.40669
-5.03164
-126.623
-127.122
-126.931
-127.402
515.83
-6.17323
-4.18646
518.865
-5.17345
-3.50173
521.462
-4.36473
-2.95046
523.697
-3.71055
-2.50594
525.63
-3.17803
-2.14485
527.311
-2.73991
-1.84831
528.779
-2.37394
-1.60119
530.062
-2.05925
-1.3884
531.173
-1.78405
-1.20555
-1.49758
-1.00278
542.124
14.8945
8.03528
534.713
45.333
24.4916
131.878
85.632
46.8959
134.566
133.173
135.079
-23.3543
-31.1858
-21.3942
-28.022
-45.1127
-13.3862
38.4308
17.9507
33.2174
33.367
33.8355
33.5753
-5.83215
-19.098
-34.9414
36.916
16.3204
6.6352
0.680821
-4.45626
-16.6449
11.9594
5.63695
2.82465
2.6231
6.58985
-13.4726
9.88157
-4.09475
-1.52719
9.97152
-30.4026
3.09951
29.6451
-8.75134
-3.56225
1.90037
6.05634
-28.6848
-2.23999
28.566
-5.59785
1.34661
4.26484
-28.4995
28.5376
-4.04421
-1.60534
1.02395
3.2183
-28.7501
28.8409
-3.10494
-1.22809
0.799065
2.49554
-29.1583
29.2721
-2.4452
-0.963152
0.629004
1.95638
-29.6265
29.7457
-1.94273
-0.761772
0.497036
1.54088
-30.1006
30.2158
-1.54849
-0.604565
0.394327
1.21902
-30.5498
30.6557
-1.23783
-0.481465
0.314583
0.970055
-30.9578
31.0523
-0.993753
-0.385352
0.252803
0.778224
-31.3188
31.4017
-0.80326
-0.310582
-31.656
0.780103
2.42786
127.397
-2.61253
-1.13563
-31.7399
-31.6895
-31.7713
516.756
-8.51657
-4.37553
-128.006
-128.559
-128.256
-128.782
519.51
-7.19538
-3.6865
521.919
-6.10736
-3.1189
524.026
-5.21026
-2.65468
525.874
-4.47183
-2.27452
527.498
-3.86201
-1.96178
528.931
-3.35427
-1.70225
530.199
-2.92569
-1.48412
531.322
-2.55471
-1.29507
532.307
-2.22609
-1.13169
-1.88903
-0.948792
545.149
13.5038
5.99862
543.366
39.5189
17.4595
136.564
68.1759
30.3881
137.207
136.772
137.519
-32.1995
138.596
27.481
9.80485
-7.11813
-42.4397
-9.02476
148.537
33.4597
12.1822
-142.715
-9.1383
-1.9473
-155.167
25.287
9.26029
-7.79116
-8.67844
-7.3289
-1.76526
-1.77526
-1.46819
40.8021
40.4037
39.7529
39.5537
-0.943567
-0.242361
-41.412
40.9619
0.327657
1.30834
5.54644
4.22417
-149.515
141.381
-12.7833
-5.27154
5.89219
5.09175
5.43514
5.47963
-134.971
4.42509
130.785
-15.2069
-5.82881
5.18316
5.19854
4.93594
4.21712
3.5634
-128.082
126.485
-13.2089
-4.8715
3.99521
4.0523
3.84917
3.3135
2.86609
-125.49
124.933
-11.083
-3.98931
3.16824
3.20881
3.07327
2.68454
2.35177
-124.64
124.544
-9.33273
-3.30609
2.57875
2.60975
2.51044
2.20453
1.95095
-124.591
124.739
-7.88507
-2.76251
2.12222
2.15043
2.07203
1.81784
1.62282
-124.973
125.258
-6.65621
-2.31243
1.75052
1.77808
1.71366
1.49807
1.34825
-125.597
125.957
-5.60124
-1.9323
1.44279
1.469
1.41585
1.23343
1.11849
-126.347
126.736
-4.69935
-1.61142
1.18824
1.21224
1.16861
1.01591
0.927799
-127.14
127.531
-3.93586
-1.34292
0.979137
1.00047
0.964814
0.838588
0.771166
-127.925
128.299
-3.29798
-1.1209
0.809413
0.827261
0.798868
2.7177
-128.675
0.643435
129.033
-2.77853
-0.940495
521.603
-8.96838
-3.69241
-129.488
-130.036
-129.684
-130.21
523.585
-7.68723
-3.15562
525.37
-6.60891
-2.70454
526.976
-5.70553
-2.32878
528.416
-4.94802
-2.01553
529.709
-4.31256
-1.75407
530.871
-3.77666
-1.53455
531.916
-3.31947
-1.34832
532.857
-2.92076
-1.18582
533.697
-2.56429
-1.04464
-2.19772
-0.884489
547.035
11.4626
4.32881
548.245
32.8609
12.2702
554.149
53.5606
19.983
567.777
69.7303
26.0075
-23.2759
-25.6997
-21.6594
-23.7131
147.28
71.59
26.8403
-26.8554
-25.1028
-24.8103
-23.2078
145.641
146.677
145.337
-20.4213
-3.44117
149.39
17.0132
4.73889
-5.30187
-1.0166
-149.673
148.326
6.16086
1.50426
557.341
-8.29085
-5.04023
7.15626
9.29983
5.99502
8.00735
-145.347
-144.126
-144.847
-143.884
540.765
-20.8205
-9.24609
10.829
10.6497
9.68976
9.6694
530.496
-25.1081
-10.1274
10.5525
9.95908
9.73591
9.27251
524.632
-25.4104
-9.72141
9.41444
8.8424
8.82785
8.33328
521.509
-24.0434
-8.90874
8.21839
7.72484
7.77735
7.33648
520.101
-22.0375
-7.99837
7.12601
6.69587
6.78238
6.39389
519.8
-19.8286
-7.0913
6.1425
5.76827
5.87696
5.53379
520.232
-17.6221
-6.22871
5.26579
4.94019
5.06035
4.75915
521.134
-15.5152
-5.43216
4.49188
4.21142
4.33382
4.07229
522.318
-13.5677
-4.71382
3.81811
3.57992
3.69692
3.47318
523.646
-11.8132
-4.07946
3.24014
3.04195
3.14715
2.95978
525.047
-10.2608
-3.52338
2.75357
2.57901
2.67897
2.50164
526.414
-8.89584
-3.04884
527.719
-7.73817
-2.64416
528.948
-6.74255
-2.29769
530.09
-5.89086
-2.00273
531.146
-5.16293
-1.75208
532.117
-4.54267
-1.53969
533.008
-4.01293
-1.35923
533.828
-3.55643
-1.20477
534.582
-3.15563
-1.0692
535.269
-2.79483
-0.950987
-2.41962
-0.81463
548.004
9.2767
3.04157
550.54
26.4775
8.53135
555.996
42.1046
13.4259
565.037
53.2331
16.8915
574.792
54.3028
17.1201
577.86
41.4761
12.3995
-14.4705
-11.175
-13.8095
-10.6851
572.138
21.5459
5.85022
-6.35576
-2.94407
-6.30432
-3.12801
560.73
2.91316
-0.360219
550.034
-8.71171
-3.78436
541.889
-14.7573
-5.31603
536.307
-17.3176
-5.80254
532.685
-17.8759
-5.74723
530.474
-17.3766
-5.44142
529.251
-16.3186
-5.01969
528.726
-15.0032
-4.55311
528.692
-13.5896
-4.08138
528.998
-12.1792
-3.62793
529.527
-10.8361
-3.20688
530.191
-9.59112
-2.82386
530.935
-8.46256
-2.48268
531.702
-7.46481
-2.18407
532.466
-6.58745
-1.92329
533.21
-5.82143
-1.69678
533.923
-5.15478
-1.50077
534.6
-4.57832
-1.33224
535.241
-4.0802
-1.18744
535.846
-3.64728
-1.06254
536.418
-3.26541
-0.952507
536.956
-2.92043
-0.856501
-2.55547
-0.743532
548.367
7.22103
2.1073
551.262
20.883
5.91318
556.102
33.0822
9.18782
562.712
41.4826
11.3517
569.089
42.6921
11.5426
571.499
34.8779
9.05565
568.677
21.8133
5.27408
562.19
8.52596
1.50492
555.101
-1.30706
-1.04303
548.956
-7.56013
-2.55331
544.179
-11.0932
-3.31972
540.682
-12.7611
-3.61696
538.232
-13.2705
-3.6423
536.581
-13.0531
-3.51185
535.533
-12.4272
-3.29602
534.938
-11.5749
-3.03835
534.676
-10.6186
-2.766
534.657
-9.63861
-2.49621
534.811
-8.6824
-2.23893
535.084
-7.78277
-2.0009
535.429
-6.95783
-1.78554
535.819
-6.2141
-1.59291
536.232
-5.55123
-1.42221
536.653
-4.96419
-1.27185
537.075
-4.44953
-1.14076
537.491
-4.00026
-1.02697
537.901
-3.60735
-0.928264
538.305
-3.26033
-0.841279
538.701
-2.9475
-0.76571
-2.60895
-0.674726
548.38
5.44188
1.4492
551.188
16.1749
4.11759
555.38
25.9408
6.39867
560.514
32.7129
7.89473
565.217
34.2353
8.1279
567.41
29.4982
6.78888
566.286
20.7405
4.55642
562.596
11.1034
2.16709
557.95
3.09223
0.313635
553.46
-2.69719
-0.970106
549.6
-6.47348
-1.75844
546.506
-8.68501
-2.19201
544.116
-9.79126
-2.38422
542.329
-10.1471
-2.42108
541.027
-10.025
-2.36079
540.11
-9.60576
-2.24271
539.495
-9.01577
-2.09304
539.111
-8.34132
-1.92929
538.906
-7.63879
-1.76277
538.835
-6.9473
-1.60137
538.861
-6.28983
-1.44967
538.957
-5.68117
-1.31019
539.102
-5.1272
-1.18385
539.282
-4.62818
-1.07052
539.486
-4.18509
-0.970352
539.708
-3.795
-0.882619
539.944
-3.45279
-0.80627
540.195
-3.15175
-0.739306
540.461
-2.88368
-0.68183
-2.58512
-0.610843
548.22
3.95021
0.995047
550.742
12.3048
2.8962
554.343
20.221
4.5542
558.547
25.8613
5.6772
562.381
27.6164
5.95691
564.556
24.8424
5.24134
564.516
18.9103
3.88651
562.576
11.8866
2.32715
559.647
5.49764
0.980834
556.457
0.462184
-0.0524776
553.455
-3.15158
-0.773798
550.845
-5.52478
-1.23526
548.667
-6.92803
-1.50202
546.91
-7.63427
-1.63084
545.518
-7.85448
-1.66548
544.434
-7.75174
-1.63808
543.606
-7.44443
-1.57155
542.986
-7.01699
-1.48207
542.533
-6.52785
-1.38083
542.215
-6.01836
-1.27592
542.001
-5.51403
-1.17237
541.869
-5.03359
-1.07383
541.802
-4.58677
-0.982224
541.784
-4.17744
-0.898362
541.807
-3.8097
-0.823178
541.862
-3.48387
-0.756794
541.946
-3.19833
-0.698986
542.06
-2.95004
-0.648866
542.206
-2.73593
-0.606895
-2.48894
-0.553656
547.962
2.75488
0.687585
550.139
9.15788
2.07245
553.237
15.5582
3.33768
556.836
20.2717
4.23135
560.224
22.0853
4.54132
562.501
20.5762
4.17885
563.196
16.6063
3.3402
562.44
11.5146
2.29726
560.724
6.55217
1.30891
558.569
2.3484
0.486411
556.315
-0.862337
-0.140323
554.184
-3.14265
-0.584295
552.285
-4.63125
-0.877312
550.645
-5.50665
-1.05435
549.259
-5.933
-1.14644
548.107
-6.04429
-1.17817
547.159
-5.9436
-1.16845
546.388
-5.70768
-1.13141
545.767
-5.39192
-1.07743
545.27
-5.03653
-1.01428
544.878
-4.66721
-0.947096
544.572
-4.30387
-0.879951
544.336
-3.95803
-0.815333
544.158
-3.63577
-0.754666
544.03
-3.34307
-0.699379
543.943
-3.08266
-0.650169
543.895
-2.85595
-0.607388
543.886
-2.6633
-0.57105
543.922
-2.50903
-0.54196
-2.32393
-0.504198
547.683
1.81817
0.481316
549.506
6.61385
1.53054
552.2
11.6658
2.53972
555.414
15.4999
3.28765
558.575
17.2079
3.61221
560.981
16.5186
3.45492
562.239
13.9354
2.9302
562.333
10.3409
2.21334
561.533
6.62031
1.47811
560.172
3.29081
0.82075
558.557
0.594303
0.282869
556.881
-1.42525
-0.128505
555.269
-2.83217
-0.425165
553.786
-3.73707
-0.626963
552.461
-4.25632
-0.75443
551.299
-4.4931
-0.825673
550.292
-4.53132
-0.855731
549.428
-4.43605
-0.856568
548.692
-4.25593
-0.837462
548.068
-4.02718
-0.805645
547.543
-3.77367
-0.766183
547.101
-3.51436
-0.723256
546.732
-3.26101
-0.679673
546.424
-3.02059
-0.637248
546.17
-2.7999
-0.597722
545.962
-2.60318
-0.562197
545.798
-2.4344
-0.531398
545.677
-2.29659
-0.50606
545.609
-2.20424
-0.487315
-2.09059
-0.462882
547.391
1.10085
0.339978
548.907
4.54091
1.17679
551.305
8.3045
2.0271
554.296
11.2303
2.68322
557.358
12.706
3.01529
559.923
12.5222
2.98206
561.616
10.9605
2.65439
562.34
8.57219
2.14955
562.24
5.9402
1.58957
561.538
3.46798
1.05496
560.46
1.37244
0.589317
559.188
-0.269733
0.21005
557.854
-1.47185
-0.082874
556.544
-2.29393
-0.298642
555.307
-2.81131
-0.449888
554.168
-3.09707
-0.549468
553.139
-3.21415
-0.609069
552.22
-3.21332
-0.638653
551.407
-3.13381
-0.646401
550.691
-3.0055
-0.638974
550.064
-2.84867
-0.621289
549.517
-2.67967
-0.597526
549.04
-2.5091
-0.570679
548.626
-2.34375
-0.542836
548.265
-2.19023
-0.515943
547.953
-2.05336
-0.491394
547.686
-1.93901
-0.470131
547.46
-1.85138
-0.453428
547.289
-1.81761
-0.442636
-1.78355
-0.429612
547.153
0.561407
0.233419
548.426
2.81564
0.951381
550.623
5.28817
1.71465
553.469
7.27428
2.31863
556.504
8.3948
2.66074
559.228
8.49235
2.71072
561.286
7.68735
2.51336
562.528
6.28447
2.14994
562.999
4.6338
1.71029
562.841
3.00487
1.26224
562.228
1.56384
0.848812
561.322
0.387775
0.492767
560.253
-0.510274
0.201847
559.117
-1.15512
-0.0257722
557.982
-1.58833
-0.196861
556.889
-1.85489
-0.320125
555.861
-1.99613
-0.404511
554.912
-2.04683
-0.45829
554.046
-2.03474
-0.488686
553.262
-1.9815
-0.50186
552.557
-1.90224
-0.502599
551.924
-1.80929
-0.495067
551.359
-1.7109
-0.482396
550.853
-1.6127
-0.466898
550.4
-1.52012
-0.450671
549.995
-1.43747
-0.435347
549.632
-1.37165
-0.421969
549.305
-1.32559
-0.412159
549.023
-1.33754
-0.407143
-1.38424
-0.403875
547.004
0.185481
0.136118
548.101
1.32656
0.825947
550.136
2.51084
1.55116
552.864
3.52333
2.13541
555.892
4.16514
2.50183
558.781
4.3379
2.62348
561.18
4.06651
2.52481
562.892
3.47161
2.26332
563.886
2.70896
1.90788
564.234
1.91154
1.51784
564.066
1.17194
1.1361
563.519
0.541831
0.7895
562.721
0.0395452
0.49168
561.776
-0.338437
0.246602
560.762
-0.607169
0.0521261
559.734
-0.786338
-0.0970751
558.729
-0.895769
-0.207685
557.77
-0.953103
-0.286582
556.869
-0.972966
-0.340211
556.033
-0.967084
-0.374353
555.263
-0.943931
-0.393735
554.558
-0.910487
-0.402553
553.913
-0.871544
-0.404096
553.324
-0.830587
-0.400921
552.786
-0.79085
-0.395275
552.291
-0.754966
-0.389018
551.834
-0.728657
-0.383283
551.404
-0.712326
-0.379834
550.994
-0.742032
-0.379091
-0.841037
-0.384406
546.941
0.0639322
547.912
0.758752
549.724
1.48099
552.258
2.08634
555.229
2.51229
558.266
2.72864
561.022
2.7402
563.255
2.58225
564.853
2.30679
565.814
1.96621
566.207
1.604
566.137
1.25194
565.72
0.930366
565.059
0.649826
564.244
0.413805
563.342
0.221183
562.406
0.0680844
561.471
-0.0506699
560.56
-0.140618
559.688
-0.207158
558.862
-0.255073
558.087
-0.288692
557.363
-0.311624
556.687
-0.326808
556.056
-0.336809
555.465
-0.343842
554.903
-0.349181
554.361
-0.355294
553.793
-0.359977
-0.373534
535.567
6.02664
16.5141
126.028
20.0379
54.4024
126.812
129.109
129.662
-26.1882
119.459
5.86231
26.8955
-14.8471
-27.0337
25.3269
1.77025
14.7836
0.302138
1.22455
-0.0164763
-1.51009
-19.7365
9.07471
-1.04398
-8.81242
20.5182
5.76721
-22.2189
-0.651605
22.7215
-5.61825
3.90319
-24.1315
24.5688
-0.449798
-3.89074
2.76519
-25.7834
26.155
-0.323633
-2.81316
2.00265
-27.1727
27.4805
-0.236981
-2.07347
1.47335
-28.3157
28.5663
-0.175816
-1.54816
1.10103
-29.2427
29.4448
-0.132243
-1.17093
0.836289
-29.9893
30.1519
-0.100948
-0.897943
0.645897
-30.5903
30.7217
-0.0782746
-0.698976
-31.0925
1.96037
125.353
-0.468202
-2.29757
-31.1016
-31.1725
-31.1811
510.546