/*--------------------------------*- C++ -*----------------------------------*\
  =========                 |
  \\      /  F ield         | OpenFOAM: The Open Source CFD Toolbox
   \\    /   O peration     | Website:  https://openfoam.org
    \\  /    A nd           | Version:  7
     \\/     M anipulation  |
\*---------------------------------------------------------------------------*/
FoamFile
{
    version     2.0;
    format      ascii;
    class       volVectorField;
    location    "600";
    object      U;
}
// * * * * * * * * * * * * * * * * * * * * * * * * * * * * * * * * * * * * * //

dimensions      [0 1 -1 0 0 0 0];

internalField   nonuniform List<vector> 
27370
(
(13.8846 0.0862896 0.0857578)
(13.0647 0.333597 0.332428)
(11.0084 0.373451 0.364863)
(5.10007 0.518522 0.484043)
(-0.73982 -0.092771 -0.114366)
(2.87385 -0.169266 -0.179054)
(6.10505 -0.125684 -0.128707)
(8.30829 -0.0841117 -0.0850393)
(9.76843 -0.0560332 -0.0563682)
(10.7515 -0.0382274 -0.0383777)
(11.4329 -0.0268939 -0.0269771)
(11.9199 -0.0195 -0.0195545)
(12.2781 -0.014539 -0.0145792)
(12.5839 -0.0214831 -0.0215453)
(12.8429 -0.031549 -0.0316495)
(12.9903 -0.0254914 -0.0255796)
(13.1081 -0.0207523 -0.0208311)
(13.2054 -0.0171001 -0.0171713)
(13.2864 -0.0142574 -0.0143223)
(13.3545 -0.0120071 -0.0120667)
(13.4123 -0.0101993 -0.0102542)
(13.4615 -0.00873078 -0.00878157)
(13.5045 -0.00746035 -0.00750739)
(13.5386 -0.00649675 -0.00654039)
(13.5793 -0.00503162 -0.0050726)
(13.8902 0.22873 0.0749239)
(13.2562 0.845352 0.278206)
(11.6605 1.60234 0.313587)
(7.24565 3.7508 0.411805)
(1.55297 -1.39577 -0.151502)
(5.33101 -1.409 -0.157999)
(7.6543 -0.953942 -0.107241)
(9.2023 -0.64352 -0.0719931)
(10.2854 -0.441712 -0.0492439)
(11.0609 -0.310051 -0.0345031)
(11.6265 -0.223056 -0.024801)
(12.0467 -0.164451 -0.0182786)
(12.3649 -0.124111 -0.0137974)
(12.6543 -0.10213 -0.0204228)
(12.9052 -0.0898365 -0.0298639)
(13.0383 -0.0731168 -0.0242921)
(13.1461 -0.0598932 -0.0198984)
(13.236 -0.0495723 -0.0164811)
(13.3115 -0.0414806 -0.0138022)
(13.3753 -0.0350428 -0.0116686)
(13.4299 -0.0298474 -0.00994562)
(13.4766 -0.025599 -0.00853898)
(13.5175 -0.0219528 -0.00732168)
(13.5504 -0.0189833 -0.00639426)
(13.5893 -0.0152667 -0.00495639)
(13.9145 0.303938 0.059921)
(13.5043 1.03086 0.202792)
(12.6372 2.053 0.221352)
(10.763 4.5458 0.263697)
(0.722571 -0.00929859 0.0529448)
(8.18378 -2.66169 -0.150873)
(9.16656 -1.72726 -0.0998879)
(9.96024 -1.19329 -0.0700213)
(10.633 -0.85612 -0.0503492)
(11.1924 -0.626165 -0.0367782)
(11.65 -0.464362 -0.0272355)
(12.02 -0.349157 -0.0204586)
(12.3177 -0.266433 -0.0156026)
(12.5574 -0.206539 -0.0120931)
(12.7969 -0.164477 -0.0181938)
(13.0149 -0.13486 -0.0267916)
(13.1244 -0.111026 -0.0220452)
(13.2152 -0.0919708 -0.0182463)
(13.2923 -0.0768118 -0.0152456)
(13.3581 -0.0647521 -0.0128615)
(13.4145 -0.0550496 -0.0109421)
(13.4631 -0.0471454 -0.00937792)
(13.5053 -0.0406158 -0.00809115)
(13.5424 -0.0350234 -0.00697217)
(13.5726 -0.0302163 -0.00611589)
(13.6087 -0.0250577 -0.00476593)
(13.9542 0.317113 0.0457771)
(13.7146 1.01793 0.143521)
(13.4643 2.06604 0.295706)
(13.1924 3.66895 0.280227)
(14.1388 6.41856 0.25702)
(11.5291 -5.61196 -0.186011)
(11.6508 -3.27483 -0.132895)
(11.3486 -2.00254 -0.0794207)
(11.393 -1.42337 -0.0563858)
(11.5646 -1.07132 -0.0425595)
(11.7865 -0.827682 -0.0329012)
(12.0207 -0.646176 -0.0256606)
(12.2468 -0.507011 -0.0201083)
(12.454 -0.399722 -0.0158366)
(12.6376 -0.317114 -0.012555)
(12.797 -0.253783 -0.0100409)
(12.9765 -0.203317 -0.0154646)
(13.1508 -0.163974 -0.0230957)
(13.2338 -0.136941 -0.0192773)
(13.3049 -0.114963 -0.0161671)
(13.3667 -0.0971189 -0.0136628)
(13.4206 -0.0826631 -0.0116377)
(13.4676 -0.0708596 -0.0099842)
(13.5088 -0.0611251 -0.00862097)
(13.545 -0.0529951 -0.0074887)
(13.5773 -0.0459911 -0.00649686)
(13.6038 -0.0398578 -0.00573367)
(13.6361 -0.0334853 -0.00451501)
(13.9814 0.295963 0.0336843)
(13.8828 0.894336 0.0992879)
(13.8434 1.63428 0.178953)
(13.946 2.52032 0.144738)
(14.8118 3.23103 0.187767)
(16.4343 2.99351 0.0909867)
(17.2911 0.285924 0.0090893)
(14.8057 -1.56211 -0.0947747)
(13.3992 -1.5443 -0.0918031)
(12.8684 -1.24381 -0.0733537)
(12.6812 -1.00256 -0.0586466)
(12.6374 -0.82216 -0.0478122)
(12.6629 -0.680545 -0.039438)
(12.7257 -0.564332 -0.0326315)
(12.8083 -0.467249 -0.026978)
(12.8994 -0.38625 -0.0222801)
(12.9913 -0.319238 -0.0184082)
(13.0795 -0.264272 -0.0152539)
(13.1627 -0.220187 -0.0127142)
(13.2947 -0.178298 -0.0193332)
(13.3528 -0.151175 -0.0163888)
(13.4048 -0.128709 -0.0139456)
(13.4513 -0.110102 -0.0119366)
(13.4928 -0.0947307 -0.0102791)
(13.5299 -0.0819712 -0.00890443)
(13.563 -0.0713039 -0.00775624)
(13.5926 -0.0622919 -0.0067928)
(13.6195 -0.0544655 -0.00594201)
(13.6419 -0.0475339 -0.0052843)
(13.6699 -0.0403479 -0.00421774)
(13.9972 0.256948 0.0240217)
(13.987 0.744744 0.0684493)
(14.0359 1.2523 0.113843)
(14.2856 1.67918 0.15335)
(14.7799 1.75286 0.160319)
(15.2786 1.52538 0.0724794)
(15.362 0.443343 0.0195889)
(14.5162 -0.386144 -0.0405682)
(13.9567 -0.623317 -0.0607596)
(13.6066 -0.668263 -0.0618821)
(13.412 -0.632453 -0.0571186)
(13.3091 -0.571968 -0.050997)
(13.2613 -0.507426 -0.0448968)
(13.2484 -0.445117 -0.0391817)
(13.2584 -0.38712 -0.0339503)
(13.283 -0.334398 -0.0292522)
(13.3164 -0.287433 -0.0251089)
(13.3543 -0.246339 -0.0215239)
(13.3943 -0.210385 -0.0184462)
(13.4339 -0.18061 -0.0158369)
(13.4716 -0.155604 -0.0136462)
(13.5068 -0.13434 -0.0117911)
(13.5395 -0.116385 -0.0102261)
(13.5696 -0.101257 -0.00890802)
(13.5971 -0.0884882 -0.00779707)
(13.6224 -0.0776647 -0.00685691)
(13.6454 -0.0684181 -0.00606035)
(13.6667 -0.0603226 -0.00535175)
(13.6849 -0.0530905 -0.00480237)
(13.7082 -0.0455268 -0.00389542)
(14.0059 0.211175 0.0167228)
(14.0406 0.602718 0.0468265)
(14.1267 0.969476 0.07448)
(14.3222 1.24188 0.0951361)
(14.6166 1.26609 0.0969005)
(14.8448 0.927039 0.0682359)
(14.8034 0.410647 0.0285171)
(14.5136 -0.046851 -0.00710651)
(14.1801 -0.296171 -0.0249111)
(13.9228 -0.404473 -0.0319307)
(13.7468 -0.435186 -0.0334318)
(13.6325 -0.427196 -0.0322789)
(13.5623 -0.401153 -0.0299926)
(13.5228 -0.367338 -0.0272755)
(13.5048 -0.3309 -0.0244525)
(13.5017 -0.294627 -0.0216995)
(13.5091 -0.260141 -0.019117)
(13.5232 -0.228425 -0.0167643)
(13.5416 -0.199637 -0.014658)
(13.5624 -0.174415 -0.0128094)
(13.5841 -0.152498 -0.0112143)
(13.6057 -0.133472 -0.00982945)
(13.6267 -0.117061 -0.00863479)
(13.6468 -0.102964 -0.00760954)
(13.6659 -0.0908721 -0.00673186)
(13.6838 -0.0804885 -0.00597991)
(13.7007 -0.0715293 -0.00533753)
(13.7167 -0.0636329 -0.00476309)
(13.7307 -0.0565365 -0.00431755)
(13.7494 -0.049 -0.00356821)
(14.0095 0.166354 0.0114791)
(14.0622 0.476338 0.0320284)
(14.1562 0.754269 0.0499292)
(14.3124 0.948954 0.0620875)
(14.509 0.97054 0.0630764)
(14.6513 0.762371 0.0483469)
(14.6428 0.435094 0.026513)
(14.492 0.11606 0.00549842)
(14.2886 -0.0992109 -0.00792712)
(14.1055 -0.223999 -0.015437)
(13.9611 -0.286312 -0.0189717)
(13.8547 -0.309248 -0.0200794)
(13.7798 -0.309112 -0.0198348)
(13.7292 -0.296049 -0.0188619)
(13.6968 -0.276111 -0.0175133)
(13.6779 -0.25296 -0.0160012)
(13.6691 -0.228865 -0.0144558)
(13.6676 -0.205284 -0.0129587)
(13.6712 -0.182991 -0.0115528)
(13.6785 -0.162459 -0.0102731)
(13.688 -0.144058 -0.00913024)
(13.6988 -0.127705 -0.00811321)
(13.7103 -0.113298 -0.00721717)
(13.7221 -0.100697 -0.00643406)
(13.7338 -0.0897283 -0.00575368)
(13.7454 -0.0801994 -0.00516428)
(13.7566 -0.0719129 -0.0046576)
(13.7678 -0.0645807 -0.00420377)
(13.7779 -0.0579799 -0.00385283)
(13.7921 -0.0508211 -0.00325246)
(14.01 0.126634 0.00782359)
(14.0659 0.369919 0.0220237)
(14.1552 0.588273 0.0342483)
(14.2827 0.739022 0.0423094)
(14.4267 0.766353 0.0434159)
(14.5307 0.6413 0.0355651)
(14.543 0.425002 0.0230229)
(14.4656 0.196963 0.00998276)
(14.3416 0.0191554 0.000229875)
(14.2142 -0.101841 -0.00626665)
(14.102 -0.17562 -0.0101391)
(14.0107 -0.214848 -0.0121336)
(13.94 -0.230984 -0.0129078)
(13.887 -0.232357 -0.0129168)
(13.8482 -0.224685 -0.0124605)
(13.8209 -0.211775 -0.0117373)
(13.8024 -0.19614 -0.0108773)
(13.7908 -0.179459 -0.00996682)
(13.7844 -0.162773 -0.00905946)
(13.782 -0.146759 -0.00819276)
(13.7825 -0.131894 -0.00738945)
(13.785 -0.118328 -0.00665544)
(13.7889 -0.106119 -0.00599426)
(13.7938 -0.095254 -0.0054057)
(13.7995 -0.0856649 -0.00488703)
(13.8055 -0.077252 -0.00443334)
(13.8119 -0.069899 -0.00404185)
(13.8188 -0.0633945 -0.00369254)
(13.8252 -0.0575725 -0.00342437)
(13.8354 -0.0510851 -0.00296029)
(14.0087 0.0932696 0.00533333)
(14.0603 0.282673 0.0153268)
(14.14 0.458087 0.0240923)
(14.2466 0.581325 0.0299649)
(14.3611 0.614098 0.0313157)
(14.4477 0.540042 0.0271446)
(14.475 0.394997 0.019658)
(14.4412 0.229717 0.0112617)
(14.3682 0.0867019 0.0042129)
(14.2821 -0.0214082 -0.0010643)
(14.198 -0.0954323 -0.00466173)
(14.1234 -0.141407 -0.00689515)
(14.0608 -0.16657 -0.00813281)
(14.01 -0.177203 -0.00867783)
(13.9697 -0.178129 -0.00875884)
(13.9384 -0.172853 -0.00854)
(13.9144 -0.163834 -0.00813684)
(13.8964 -0.152789 -0.00763042)
(13.8833 -0.140865 -0.00707551)
(13.8741 -0.128839 -0.00651049)
(13.868 -0.117246 -0.00596209)
(13.8642 -0.106369 -0.00544406)
(13.8622 -0.0963662 -0.00496518)
(13.8616 -0.0873124 -0.00453028)
(13.8622 -0.0792205 -0.0041414)
(13.8637 -0.072065 -0.0037983)
(13.8658 -0.0658021 -0.00350187)
(13.8688 -0.060298 -0.00324046)
(13.8721 -0.0554667 -0.00304223)
(13.8785 -0.0498967 -0.00269989)
(14.0063 0.0662059 0.00366744)
(14.0502 0.212106 0.0108912)
(14.1195 0.35407 0.0174777)
(14.2109 0.456954 0.022075)
(14.3083 0.492623 0.0235909)
(14.3873 0.450782 0.0214618)
(14.4262 0.353242 0.0168793)
(14.421 0.233316 0.0113089)
(14.3828 0.120839 0.00616927)
(14.3275 0.0289612 0.0019626)
(14.2669 -0.0391873 -0.00118887)
(14.2081 -0.0856677 -0.00337988)
(14.1548 -0.114608 -0.00479461)
(14.1086 -0.130408 -0.00562225)
(14.0694 -0.13687 -0.00602602)
(14.0368 -0.13696 -0.0061325)
(14.0099 -0.132893 -0.00603774)
(13.9881 -0.126286 -0.00581317)
(13.9706 -0.118275 -0.00551027)
(13.9566 -0.109652 -0.00516647)
(13.9456 -0.100971 -0.00480903)
(13.937 -0.092574 -0.00445525)
(13.9305 -0.0846766 -0.00411705)
(13.9255 -0.0774069 -0.00380236)
(13.922 -0.0708335 -0.00351627)
(13.9195 -0.0649872 -0.00326177)
(13.9181 -0.0598883 -0.00304201)
(13.9177 -0.055477 -0.00285273)
(13.918 -0.0517835 -0.00271155)
(13.9208 -0.0473448 -0.00247605)
(14.0032 0.0448678 0.00256115)
(14.0384 0.155358 0.00798584)
(14.0982 0.269002 0.0131849)
(14.1786 0.354004 0.0169978)
(14.2665 0.389346 0.0185979)
(14.3429 0.368086 0.0176331)
(14.3912 0.303602 0.014784)
(14.4062 0.217869 0.010986)
(14.3929 0.131854 0.00717546)
(14.3612 0.0571354 0.00381517)
(14.3198 -0.0017558 0.00110123)
(14.275 -0.0446341 -0.000947334)
(14.2311 -0.0735438 -0.00240431)
(14.1903 -0.0913442 -0.00337906)
(14.1536 -0.100823 -0.0039805)
(14.1213 -0.104338 -0.0043023)
(14.0933 -0.103756 -0.0044213)
(14.0693 -0.100496 -0.00439822)
(14.0488 -0.0955953 -0.00427948)
(14.0315 -0.0897991 -0.00410031)
(14.017 -0.0836369 -0.00388736)
(14.0048 -0.0774625 -0.00365944)
(13.9946 -0.0715098 -0.00343022)
(13.9862 -0.0659341 -0.00320954)
(13.9792 -0.0608366 -0.00300451)
(13.9735 -0.0562872 -0.00282037)
(13.9689 -0.0523598 -0.00266147)
(13.9655 -0.0490612 -0.00253019)
(13.9631 -0.0465862 -0.00243365)
(13.9625 -0.0434754 -0.00229085)
(13.9999 0.0284974 0.00181079)
(14.0267 0.109659 0.00610072)
(14.0789 0.197363 0.0104419)
(14.152 0.264707 0.0137708)
(14.2346 0.296668 0.0154152)
(14.311 0.288385 0.0151421)
(14.3674 0.247741 0.0133661)
(14.3975 0.18879 0.010708)
(14.403 0.125901 0.00781599)
(14.3897 0.0683259 0.00508768)
(14.3641 0.0206405 0.00273586)
(14.3317 -0.0158738 0.00083912)
(14.2966 -0.0419489 -0.000611784)
(14.2614 -0.0592472 -0.00166978)
(14.2278 -0.069665 -0.0024026)
(14.1967 -0.0749517 -0.0028771)
(14.1685 -0.0765699 -0.00315323)
(14.1433 -0.0756771 -0.00328169)
(14.121 -0.0731499 -0.00330359)
(14.1013 -0.0696344 -0.00325164)
(14.0841 -0.065599 -0.00315154)
(14.0691 -0.0613701 -0.00302266)
(14.0561 -0.0571726 -0.00287974)
(14.0448 -0.053164 -0.00273391)
(14.035 -0.0494581 -0.0025936)
(14.0265 -0.0461459 -0.0024658)
(14.0192 -0.0433429 -0.00235504)
(14.0129 -0.0411051 -0.00227005)
(14.0081 -0.0398437 -0.00220639)
(14.004 -0.0382466 -0.00214392)
(13.9971 0.0161886 0.00125239)
(14.017 0.0724943 0.00490792)
(14.0636 0.135005 0.0087783)
(14.1318 0.184068 0.0118318)
(14.2116 0.210106 0.0135268)
(14.2894 0.209577 0.0137041)
(14.3528 0.186467 0.0126262)
(14.3952 0.1491 0.0107206)
(14.4158 0.10668 0.00845849)
(14.4177 0.0658841 0.00617814)
(14.4055 0.0305816 0.00409192)
(14.384 0.00236049 0.00230906)
(14.357 -0.0187332 0.000862259)
(14.3273 -0.0335153 -0.000262312)
(14.2972 -0.0431385 -0.00110181)
(14.2678 -0.0487734 -0.00170179)
(14.24 -0.0514585 -0.00210819)
(14.2143 -0.0520501 -0.00236305)
(14.1907 -0.0512177 -0.00250275)
(14.1694 -0.0494679 -0.00255765)
(14.1502 -0.0471753 -0.0025526)
(14.1329 -0.0446088 -0.00250728)
(14.1176 -0.041959 -0.00243716)
(14.1038 -0.0393655 -0.00235447)
(14.0916 -0.0369348 -0.00226854)
(14.0806 -0.0347605 -0.00218796)
(14.0709 -0.0329811 -0.00211653)
(14.062 -0.0316738 -0.00206932)
(14.0548 -0.0314773 -0.00202735)
(14.0465 -0.0315088 -0.00203421)
(13.9961 0.00646407 0.000725657)
(14.0109 0.0416566 0.00427091)
(14.053 0.0790128 0.00795008)
(14.117 0.109317 0.0108953)
(14.1946 0.127381 0.0127072)
(14.2743 0.130595 0.0132512)
(14.3447 0.120166 0.0126772)
(14.3983 0.100263 0.0112914)
(14.4325 0.0759469 0.00945428)
(14.4484 0.0513203 0.00746437)
(14.4489 0.02908 0.00553473)
(14.438 0.0105997 0.00379655)
(14.4191 -0.00375962 0.0023131)
(14.3953 -0.0142653 0.00109987)
(14.369 -0.0214872 0.000142806)
(14.3419 -0.0260854 -0.000587037)
(14.3151 -0.0286873 -0.00112447)
(14.2893 -0.0298325 -0.00150473)
(14.265 -0.0299558 -0.00176041)
(14.2424 -0.0293934 -0.00192012)
(14.2216 -0.0283971 -0.00200814)
(14.2025 -0.027153 -0.00204458)
(14.1851 -0.0257924 -0.00204561)
(14.1692 -0.0244182 -0.0020246)
(14.1547 -0.0231055 -0.00199151)
(14.1414 -0.0219287 -0.00195652)
(14.1293 -0.0210235 -0.00192234)
(14.1176 -0.0204045 -0.00190898)
(14.1081 -0.0209123 -0.00188203)
(14.0941 -0.0225149 -0.0019483)
(13.9983 0.000679141 0.000315487)
(14.0092 0.016237 0.00396632)
(14.0448 0.0332658 0.00770376)
(14.1027 0.0486816 0.0107975)
(14.1765 0.0598995 0.0129516)
(14.2571 0.0651136 0.0140071)
(14.3346 0.0639455 0.0139998)
(14.4006 0.057495 0.0131253)
(14.4505 0.0477112 0.0116628)
(14.4829 0.0365284 0.00988375)
(14.4992 0.025469 0.00801019)
(14.5019 0.015527 0.00620334)
(14.4942 0.00719909 0.00456393)
(14.4789 0.000613812 0.00314241)
(14.4587 -0.00432848 0.00195351)
(14.4355 -0.00784977 0.000988813)
(14.411 -0.0102146 0.000226654)
(14.3862 -0.0116809 -0.000360717)
(14.3619 -0.0124754 -0.000802436)
(14.3386 -0.012785 -0.00112632)
(14.3164 -0.0127574 -0.0013573)
(14.2955 -0.0125065 -0.00151707)
(14.276 -0.0121169 -0.00162374)
(14.2578 -0.0116538 -0.00169278)
(14.2409 -0.011169 -0.00173603)
(14.2251 -0.0107 -0.00176583)
(14.2104 -0.0103354 -0.00178502)
(14.1954 -0.0100661 -0.00181782)
(14.1841 -0.010253 -0.00181897)
(14.1608 -0.0118158 -0.00191673)
(13.8901 0.0750418 0.228255)
(13.256 0.278862 0.843587)
(11.659 0.314707 1.59697)
(7.24924 0.412453 3.75667)
(1.64202 -0.152092 -1.55654)
(5.37931 -0.154497 -1.46278)
(7.66757 -0.105612 -0.970472)
(9.20575 -0.0713834 -0.649305)
(10.2863 -0.0489926 -0.444083)
(11.0612 -0.0343793 -0.311218)
(11.6266 -0.0247284 -0.223741)
(12.0467 -0.0182292 -0.164915)
(12.3649 -0.0137601 -0.124459)
(12.6543 -0.0203646 -0.102433)
(12.9052 -0.0297704 -0.0901306)
(13.0383 -0.0242092 -0.0733764)
(13.1461 -0.0198239 -0.0601256)
(13.236 -0.0164134 -0.0497828)
(13.3115 -0.0137402 -0.0416728)
(13.3753 -0.0116115 -0.0352194)
(13.4299 -0.00989286 -0.0300104)
(13.4766 -0.00849011 -0.0257499)
(13.5175 -0.00727635 -0.0220925)
(13.5504 -0.00635216 -0.019113)
(13.5893 -0.0049168 -0.0153886)
(13.902 0.202017 0.201791)
(13.3913 0.719592 0.718298)
(12.1389 1.37711 1.37357)
(8.81545 3.15785 3.14513)
(4.62533 -1.60658 -1.61527)
(7.24156 -1.19549 -1.21204)
(8.77074 -0.804038 -0.812818)
(9.86972 -0.555302 -0.559175)
(10.6938 -0.391564 -0.393376)
(11.3182 -0.281413 -0.282384)
(11.7942 -0.206293 -0.206896)
(12.16 -0.154303 -0.154726)
(12.4442 -0.117741 -0.118066)
(12.7189 -0.0970243 -0.097308)
(12.9624 -0.0849617 -0.0852359)
(13.083 -0.0695554 -0.0697995)
(13.1819 -0.0572858 -0.0575057)
(13.265 -0.0476295 -0.0478296)
(13.3355 -0.0400072 -0.0401907)
(13.3954 -0.0339091 -0.0340783)
(13.4469 -0.0289647 -0.0291213)
(13.4913 -0.0249042 -0.0250494)
(13.5301 -0.0214148 -0.0215494)
(13.5618 -0.0185573 -0.0186824)
(13.5991 -0.0149589 -0.0150766)
(13.9299 0.273262 0.1636)
(13.5842 0.907139 0.541373)
(12.8898 1.79941 0.991998)
(11.8638 4.0752 2.27836)
(11.2131 9.45541 4.83277)
(5.36173 -2.87684 -1.34647)
(9.34034 -2.18922 -1.13614)
(9.93111 -1.46834 -0.77086)
(10.4857 -1.04137 -0.550972)
(10.994 -0.763257 -0.404387)
(11.4411 -0.56877 -0.301093)
(11.8228 -0.4286 -0.226664)
(12.1419 -0.326561 -0.172581)
(12.4053 -0.25187 -0.133054)
(12.6217 -0.19693 -0.103992)
(12.851 -0.156899 -0.0869971)
(13.0639 -0.128046 -0.0767471)
(13.1636 -0.105937 -0.0635188)
(13.2472 -0.0881649 -0.0528361)
(13.3187 -0.0739289 -0.0443103)
(13.3801 -0.0625345 -0.0374943)
(13.4331 -0.0533226 -0.031984)
(13.4791 -0.0457868 -0.027477)
(13.5191 -0.0395386 -0.023748)
(13.5545 -0.0341772 -0.020527)
(13.5836 -0.0295387 -0.0178742)
(13.6182 -0.0246054 -0.0145054)
(13.9636 0.290113 0.126126)
(13.7687 0.915296 0.392216)
(13.5945 1.80568 0.770806)
(13.4316 3.15952 1.21974)
(14.3646 5.23598 1.87109)
(20.2528 7.86681 2.75772)
(16.5771 -5.77013 -1.9786)
(12.091 -2.73869 -0.983921)
(11.69 -1.75481 -0.627776)
(11.6763 -1.27348 -0.455226)
(11.7934 -0.97224 -0.348014)
(11.9662 -0.760204 -0.272175)
(12.1594 -0.600045 -0.214655)
(12.353 -0.475509 -0.169927)
(12.5352 -0.378156 -0.13502)
(12.7 -0.302237 -0.107852)
(12.8455 -0.243388 -0.0867791)
(13.0191 -0.19488 -0.0742296)
(13.1908 -0.156375 -0.066437)
(13.2667 -0.131115 -0.055727)
(13.3324 -0.110495 -0.0469281)
(13.3899 -0.0936606 -0.0397825)
(13.4402 -0.0799543 -0.0339749)
(13.4845 -0.0687172 -0.0292163)
(13.5234 -0.0594171 -0.0252805)
(13.5578 -0.0516256 -0.0219945)
(13.5885 -0.0449023 -0.0191363)
(13.6142 -0.038977 -0.0167686)
(13.6451 -0.0329034 -0.0137293)
(13.9859 0.27378 0.0936482)
(13.9122 0.818325 0.275733)
(13.8919 1.47103 0.489735)
(13.9938 2.27288 0.657726)
(14.7836 2.8401 0.826956)
(16.0722 2.17362 0.642739)
(16.759 0.353669 0.0926806)
(14.7777 -1.22845 -0.370016)
(13.537 -1.33023 -0.396714)
(13.0146 -1.11273 -0.329394)
(12.814 -0.913558 -0.268245)
(12.7539 -0.757367 -0.221049)
(12.763 -0.632149 -0.183842)
(12.8102 -0.528126 -0.153246)
(12.8787 -0.440317 -0.127567)
(12.9575 -0.366308 -0.106009)
(13.0391 -0.304484 -0.0880704)
(13.1187 -0.253348 -0.0733069)
(13.1952 -0.212017 -0.0612861)
(13.3265 -0.170712 -0.0558275)
(13.3798 -0.14523 -0.047527)
(13.4278 -0.124033 -0.0405773)
(13.4711 -0.106399 -0.034821)
(13.51 -0.0917731 -0.0300534)
(13.5449 -0.0795918 -0.026087)
(13.5762 -0.0693785 -0.0227654)
(13.6043 -0.060728 -0.0199651)
(13.6299 -0.0532062 -0.017511)
(13.6515 -0.0465044 -0.0154673)
(13.6782 -0.0396573 -0.012807)
(13.9995 0.239712 0.0672779)
(14.0008 0.691742 0.19184)
(14.0591 1.15064 0.315896)
(14.2973 1.52553 0.413822)
(14.7402 1.58401 0.435591)
(15.1971 1.40895 0.323166)
(15.2693 0.450376 0.0985595)
(14.5149 -0.30066 -0.0969413)
(14.0098 -0.539175 -0.157559)
(13.6767 -0.597986 -0.166292)
(13.4835 -0.576253 -0.156457)
(13.3769 -0.527025 -0.141398)
(13.3237 -0.471321 -0.125596)
(13.3048 -0.416155 -0.110404)
(13.3085 -0.364021 -0.0962673)
(13.3271 -0.316093 -0.0834115)
(13.3548 -0.272998 -0.0719579)
(13.3876 -0.235 -0.0619527)
(13.4232 -0.201588 -0.0532787)
(13.459 -0.173556 -0.0459173)
(13.4934 -0.149923 -0.0396901)
(13.5259 -0.129764 -0.0343828)
(13.5562 -0.112681 -0.0298832)
(13.5844 -0.0982425 -0.0260814)
(13.6103 -0.0860208 -0.0228683)
(13.6341 -0.0756372 -0.0201436)
(13.6559 -0.0667484 -0.0178249)
(13.6762 -0.0589602 -0.0157794)
(13.6937 -0.051963 -0.0140697)
(13.7159 -0.0447566 -0.0118062)
(14.0068 0.198361 0.0471176)
(14.0461 0.565278 0.132246)
(14.1348 0.904568 0.209235)
(14.3227 1.1516 0.264541)
(14.5949 1.17259 0.269695)
(14.803 0.868989 0.191691)
(14.7685 0.403267 0.0867011)
(14.5092 -0.0159918 -0.0128071)
(14.2021 -0.254679 -0.0649615)
(13.9573 -0.364418 -0.0867301)
(13.7858 -0.399902 -0.092527)
(13.6722 -0.397083 -0.0904033)
(13.6008 -0.3758 -0.084702)
(13.5591 -0.346175 -0.0775201)
(13.5383 -0.313369 -0.0698629)
(13.5323 -0.28021 -0.0622789)
(13.5366 -0.248353 -0.0550888)
(13.5479 -0.218816 -0.0484833)
(13.5637 -0.191822 -0.0425276)
(13.5821 -0.168046 -0.0372632)
(13.6017 -0.147278 -0.0326941)
(13.6214 -0.129179 -0.0287159)
(13.6408 -0.113518 -0.0252718)
(13.6595 -0.100027 -0.0223076)
(13.6773 -0.0884289 -0.0197641)
(13.6942 -0.0784505 -0.0175813)
(13.7101 -0.0698275 -0.0157091)
(13.7253 -0.0622254 -0.0140499)
(13.7387 -0.0553561 -0.012662)
(13.7565 -0.048178 -0.010789)
(14.0097 0.157151 0.0325006)
(14.0636 0.450064 0.0910477)
(14.1575 0.711156 0.141643)
(14.3087 0.892133 0.175539)
(14.4947 0.91253 0.178553)
(14.6286 0.724021 0.138256)
(14.6236 0.423316 0.0783915)
(14.4865 0.12674 0.0192872)
(14.297 -0.078897 -0.0196611)
(14.1225 -0.201076 -0.0418901)
(13.9829 -0.263963 -0.0527585)
(13.8786 -0.288848 -0.0565756)
(13.8042 -0.291087 -0.0563553)
(13.7531 -0.280412 -0.0539152)
(13.7197 -0.262715 -0.0502976)
(13.6995 -0.241595 -0.0461358)
(13.6892 -0.219296 -0.0418215)
(13.6861 -0.197267 -0.0376022)
(13.6883 -0.176302 -0.0336145)
(13.694 -0.156882 -0.0299541)
(13.7022 -0.13939 -0.0266693)
(13.7118 -0.123792 -0.0237395)
(13.7221 -0.110011 -0.0211504)
(13.7329 -0.0979276 -0.0188819)
(13.7437 -0.0873883 -0.0169069)
(13.7545 -0.0782192 -0.0151938)
(13.765 -0.0702365 -0.0137156)
(13.7756 -0.0631751 -0.0124044)
(13.7852 -0.0567847 -0.0113113)
(13.7987 -0.0499718 -0.00980623)
(14.0099 0.120167 0.0222399)
(14.0656 0.351469 0.0629576)
(14.1537 0.558721 0.0978853)
(14.2779 0.70133 0.120869)
(14.4164 0.727928 0.124242)
(14.5164 0.613426 0.102722)
(14.5307 0.412379 0.0677106)
(14.4601 0.198263 0.0307576)
(14.344 0.0283168 0.00248852)
(14.2225 -0.0890087 -0.0165719)
(14.1141 -0.161662 -0.0281281)
(14.0252 -0.201171 -0.0342479)
(13.9556 -0.218265 -0.0367821)
(13.903 -0.220881 -0.0370408)
(13.8642 -0.214529 -0.0358999)
(13.8363 -0.202907 -0.0339417)
(13.8172 -0.188473 -0.0315517)
(13.8048 -0.172876 -0.0289863)
(13.7976 -0.157151 -0.0264081)
(13.7944 -0.141968 -0.0239273)
(13.794 -0.127808 -0.0216164)
(13.7957 -0.114842 -0.0194984)
(13.7989 -0.103142 -0.017585)
(13.8031 -0.0927068 -0.0158778)
(13.8081 -0.0834817 -0.0143704)
(13.8136 -0.0753791 -0.0130506)
(13.8194 -0.0682921 -0.0119078)
(13.8258 -0.0620286 -0.0108983)
(13.8319 -0.056394 -0.010065)
(13.8415 -0.0502298 -0.0088953)
(14.0085 0.0888104 0.0152068)
(14.0594 0.269685 0.0440187)
(14.1378 0.437312 0.0692619)
(14.242 0.555132 0.0862395)
(14.3532 0.58722 0.0902966)
(14.4377 0.519095 0.0788407)
(14.466 0.383156 0.0577472)
(14.436 0.226892 0.0338059)
(14.3677 0.0899613 0.0133603)
(14.2857 -0.014594 -0.00207887)
(14.2046 -0.0868926 -0.0127114)
(14.1321 -0.132336 -0.019402)
(14.0709 -0.15766 -0.0231815)
(14.0208 -0.168829 -0.0249199)
(13.9809 -0.170474 -0.0252802)
(13.9496 -0.165983 -0.0247418)
(13.9254 -0.157748 -0.0236444)
(13.9072 -0.147445 -0.0222273)
(13.8937 -0.136204 -0.0206538)
(13.884 -0.124791 -0.0190381)
(13.8774 -0.113734 -0.0174605)
(13.8731 -0.103324 -0.0159648)
(13.8706 -0.0937267 -0.0145779)
(13.8696 -0.0850218 -0.0133154)
(13.8697 -0.0772307 -0.0121846)
(13.8708 -0.0703355 -0.0111859)
(13.8726 -0.0642987 -0.0103206)
(13.8751 -0.0590025 -0.00956464)
(13.8781 -0.0543319 -0.0089528)
(13.884 -0.0490543 -0.00808154)
(14.0061 0.0631931 0.0104748)
(14.0492 0.202952 0.0314003)
(14.1173 0.339202 0.050487)
(14.2068 0.438169 0.0638885)
(14.3022 0.473088 0.0684102)
(14.3798 0.434628 0.0625794)
(14.4191 0.342739 0.0495921)
(14.416 0.228814 0.0336293)
(14.3808 0.120933 0.0187061)
(14.3284 0.0321382 0.00640852)
(14.2701 -0.0341957 -0.00287138)
(14.2131 -0.0797942 -0.00937675)
(14.1612 -0.108469 -0.0136179)
(14.1158 -0.124382 -0.0161354)
(14.0772 -0.131175 -0.0174008)
(14.0449 -0.131708 -0.0177828)
(14.0182 -0.12813 -0.0175629)
(13.9964 -0.122017 -0.0169514)
(13.9787 -0.114479 -0.0161005)
(13.9645 -0.106297 -0.0151213)
(13.9533 -0.0980133 -0.0140949)
(13.9445 -0.0899719 -0.0130741)
(13.9376 -0.0823886 -0.0120948)
(13.9324 -0.0753949 -0.0111813)
(13.9285 -0.0690633 -0.0103493)
(13.9258 -0.0634295 -0.00960844)
(13.9241 -0.0585166 -0.00896736)
(13.9234 -0.0542785 -0.00841909)
(13.9235 -0.0507169 -0.00799006)
(13.9259 -0.0465333 -0.00737962)
(14.0031 0.0428856 0.00731632)
(14.0375 0.148933 0.0230984)
(14.0962 0.2583 0.0382455)
(14.1753 0.340355 0.0494101)
(14.2615 0.374912 0.0541652)
(14.3368 0.355552 0.0515704)
(14.3852 0.294624 0.0434673)
(14.4014 0.212928 0.0325408)
(14.39 0.13032 0.0214617)
(14.3603 0.0581206 0.0116359)
(14.3207 0.000895848 0.00365577)
(14.2775 -0.0410104 -0.00240224)
(14.2348 -0.0694524 -0.00673681)
(14.1949 -0.0871237 -0.00965792)
(14.1589 -0.0966873 -0.0114793)
(14.1271 -0.100415 -0.0124733)
(14.0994 -0.100115 -0.0128646)
(14.0755 -0.0971661 -0.0128315)
(14.0552 -0.0925813 -0.012511)
(14.0378 -0.0870903 -0.0120073)
(14.0232 -0.0812129 -0.0113993)
(14.0109 -0.0752992 -0.0107436)
(14.0006 -0.0695822 -0.0100809)
(13.992 -0.0642173 -0.00944085)
(13.9849 -0.0593074 -0.00884499)
(13.979 -0.0549251 -0.00830914)
(13.9743 -0.0511449 -0.00784646)
(13.9706 -0.0479845 -0.00746436)
(13.9681 -0.0456117 -0.00718082)
(13.9672 -0.0427126 -0.00679559)
(13.9999 0.0272434 0.00516299)
(14.026 0.105229 0.0176983)
(14.0773 0.189779 0.0304074)
(14.1492 0.254908 0.0401772)
(14.2304 0.286113 0.045055)
(14.3058 0.278832 0.0443996)
(14.362 0.240385 0.0393413)
(14.3927 0.184109 0.0316693)
(14.3994 0.123666 0.023246)
(14.3875 0.0680426 0.0152599)
(14.3634 0.0217614 0.00834587)
(14.3323 -0.0138398 0.00274617)
(14.2982 -0.0393877 -0.00155494)
(14.2639 -0.0564375 -0.00470483)
(14.2311 -0.0667959 -0.00689784)
(14.2006 -0.0721458 -0.00832817)
(14.1728 -0.0739012 -0.0091709)
(14.1479 -0.0731861 -0.0095747)
(14.1258 -0.0708544 -0.00966071)
(14.1062 -0.0675377 -0.00952549)
(14.0891 -0.0636949 -0.00924508)
(14.0742 -0.0596475 -0.00887722)
(14.0611 -0.0556177 -0.00846569)
(14.0498 -0.051762 -0.00804379)
(14.0399 -0.0481943 -0.00763675)
(14.0313 -0.0450066 -0.00726508)
(14.0239 -0.0423136 -0.00694399)
(14.0176 -0.0401789 -0.00669315)
(14.0126 -0.0389907 -0.0065198)
(14.0082 -0.0375537 -0.006328)
(13.9971 0.0154332 0.00354891)
(14.0165 0.0695922 0.0142671)
(14.0623 0.129935 0.0256401)
(14.1294 0.17742 0.0346185)
(14.2079 0.202796 0.0396503)
(14.2847 0.202709 0.0402795)
(14.3477 0.180856 0.0372197)
(14.3902 0.145152 0.031707)
(14.4115 0.104369 0.0251043)
(14.4143 0.0649681 0.0184174)
(14.4033 0.0307397 0.0122778)
(14.3829 0.00327531 0.00701404)
(14.3569 -0.0173312 0.00273033)
(14.3281 -0.0318333 -0.00060824)
(14.2987 -0.0413259 -0.00310745)
(14.27 -0.0469328 -0.00489951)
(14.2427 -0.049657 -0.00611865)
(14.2174 -0.0503286 -0.0068884)
(14.1941 -0.0495994 -0.00731592)
(14.173 -0.0479635 -0.00749093)
(14.154 -0.045787 -0.00748687)
(14.1369 -0.0433341 -0.00736221)
(14.1216 -0.0407923 -0.00716288)
(14.1079 -0.0382995 -0.0069252)
(14.0957 -0.0359615 -0.00667712)
(14.0848 -0.0338718 -0.00644315)
(14.075 -0.0321675 -0.00623847)
(14.066 -0.0309271 -0.00609331)
(14.0588 -0.0307787 -0.00599743)
(14.0503 -0.0309067 -0.00597121)
(13.9962 0.00607726 0.00205689)
(14.0106 0.0399806 0.0123773)
(14.0518 0.0760993 0.0231802)
(14.1148 0.105442 0.0318571)
(14.1912 0.123027 0.0372517)
(14.2697 0.126362 0.0389654)
(14.3394 0.116534 0.0373931)
(14.3929 0.0975152 0.0334122)
(14.4274 0.0741323 0.0280661)
(14.4438 0.0503515 0.0222384)
(14.4452 0.0288004 0.0165622)
(14.4352 0.0108351 0.0114303)
(14.4172 -0.00316768 0.00703643)
(14.3943 -0.0134456 0.00343265)
(14.3688 -0.0205378 0.00058215)
(14.3423 -0.0250766 -0.0015976)
(14.3161 -0.0276673 -0.00320761)
(14.2909 -0.0288328 -0.00435095)
(14.267 -0.0289959 -0.00512356)
(14.2447 -0.0284843 -0.00561002)
(14.2242 -0.0275441 -0.00588224)
(14.2053 -0.0263577 -0.00599993)
(14.188 -0.025054 -0.00601127)
(14.1723 -0.0237344 -0.00595593)
(14.1579 -0.0224731 -0.00586426)
(14.1447 -0.0213434 -0.00576458)
(14.1326 -0.0204821 -0.00567174)
(14.121 -0.0198939 -0.00562228)
(14.1116 -0.0204342 -0.00558381)
(14.0975 -0.0220473 -0.00570177)
(13.9984 0.00057941 0.000932529)
(14.009 0.0155418 0.0113563)
(14.0438 0.03204 0.0221806)
(14.1007 0.0470091 0.0312193)
(14.1732 0.0579692 0.037558)
(14.2525 0.0631788 0.0407372)
(14.329 0.0622243 0.0408377)
(14.3944 0.0561358 0.0384028)
(14.4441 0.0467659 0.034226)
(14.4767 0.0359795 0.0290961)
(14.4935 0.0252581 0.0236639)
(14.4969 0.0155778 0.0184031)
(14.4899 0.0074365 0.0136125)
(14.4755 0.000972868 0.00944503)
(14.456 -0.00389907 0.0059486)
(14.4336 -0.00738751 0.00310261)
(14.4098 -0.00974515 0.000846785)
(14.3856 -0.0112207 -0.000897847)
(14.3618 -0.0120341 -0.00221504)
(14.3389 -0.012368 -0.0031853)
(14.3171 -0.0123669 -0.00388123)
(14.2966 -0.0121428 -0.00436615)
(14.2774 -0.0117794 -0.00469332)
(14.2595 -0.011341 -0.004908)
(14.2428 -0.0108797 -0.00504599)
(14.2272 -0.0104313 -0.00514107)
(14.2127 -0.0100894 -0.00521003)
(14.1979 -0.00982709 -0.00529887)
(14.1866 -0.0100457 -0.00534369)
(14.1635 -0.0115695 -0.005571)
(13.9144 0.0599802 0.303518)
(13.5038 0.20327 1.02944)
(12.6342 0.22226 2.0492)
(10.7504 0.267148 4.53641)
(1.32116 -0.0269609 -0.781748)
(8.26315 -0.158102 -2.70994)
(9.20297 -0.100436 -1.7446)
(9.9753 -0.0697059 -1.20165)
(10.6387 -0.0501149 -0.860571)
(11.1945 -0.036644 -0.628673)
(11.6508 -0.0271549 -0.465898)
(12.0203 -0.0204049 -0.350194)
(12.3178 -0.0155631 -0.267196)
(12.5574 -0.0120617 -0.207141)
(12.7969 -0.0181436 -0.164988)
(13.0148 -0.02671 -0.135325)
(13.1244 -0.0219717 -0.11144)
(13.2152 -0.0181795 -0.0923439)
(13.2923 -0.0151844 -0.0771513)
(13.3581 -0.012805 -0.0650632)
(13.4144 -0.0108897 -0.0553363)
(13.4631 -0.00932932 -0.0474105)
(13.5053 -0.00804595 -0.0408616)