/*--------------------------------*- C++ -*----------------------------------*\
  =========                 |
  \\      /  F ield         | OpenFOAM: The Open Source CFD Toolbox
   \\    /   O peration     | Website:  https://openfoam.org
    \\  /    A nd           | Version:  7
     \\/     M anipulation  |
\*---------------------------------------------------------------------------*/
FoamFile
{
    version     2.0;
    format      ascii;
    class       volScalarField;
    location    "700";
    object      k;
}
// * * * * * * * * * * * * * * * * * * * * * * * * * * * * * * * * * * * * * //

dimensions      [0 2 -2 0 0 0 0];

internalField   nonuniform List<scalar> 
27370
(
348.946
348.705
350.048
309.662
17.8265
34.7861
50.6592
65.3273
76.9013
84.8903
89.787
92.32
93.1386
92.7729
91.3526
89.2365
86.8455
84.288
81.6422
78.9632
76.2902
73.6532
71.0808
68.6374
66.6331
348.686
347.41
348.329
324.556
21.4621
46.9278
65.1732
77.6767
86.0902
91.4111
94.3697
95.5581
95.4551
94.6654
93.0104
90.4685
87.7641
84.971
82.1446
79.3259
76.544
73.8217
71.1822
68.6858
66.6426
348.21
345.454
344.8
335.398
2.50222
57.7247
84.0791
96.0283
101.572
103.933
104.498
103.917
102.531
100.567
98.465
95.8356
92.5969
89.3613
86.1589
83.0148
79.9479
76.9713
74.0955
71.3346
68.7417
66.6265
347.638
343.225
338.309
332.283
298.641
20.7039
118.741
128.726
130.265
128.908
126.083
122.534
118.676
114.716
110.748
106.813
103.079
99.1074
95.0901
91.2389
87.5503
84.0216
80.6498
77.431
74.3623
71.4474
68.7309
66.5206
347.066
341.126
334.432
328.226
311.827
279.85
232.665
211.528
193.29
178.465
166.339
156.044
146.995
138.866
131.483
124.735
118.536
112.818
107.515
102.165
97.4256
92.9845
88.8188
84.9051
81.2228
77.7539
74.4842
71.4073
68.5581
66.2409
346.555
339.35
331.226
320.655
306.052
290.106
265.102
239.027
218.874
201.066
185.538
171.975
160.037
149.442
139.97
131.454
123.76
116.782
110.445
104.571
99.2022
94.2549
89.6755
85.4235
81.4654
77.7717
74.3191
71.0932
68.1194
65.6932
346.122
337.878
328.636
317.512
303.611
286.333
266.952
246.741
227.573
209.91
193.907
179.528
166.641
155.081
144.692
135.331
126.876
119.218
112.269
105.913
100.107
94.7853
89.8913
85.3769
81.2013
77.329
73.7307
70.386
67.3097
64.7799
345.762
336.615
326.381
314.555
300.678
284.593
266.91
248.521
230.467
213.347
197.461
182.905
169.666
157.67
146.815
136.993
128.099
120.036
112.714
106.043
99.9556
94.3892
89.2862
84.5964
80.2758
76.2853
72.5919
69.1707
66.0253
63.4027
345.457
335.441
324.167
311.428
297.097
281.234
264.264
246.793
229.513
212.929
197.342
182.899
169.633
157.52
146.499
136.488
127.4
119.147
111.647
104.82
98.5944
92.9088
87.7054
82.9334
78.5478
74.5079
70.7791
67.3329
64.1617
61.4604
345.19
334.21
321.659
307.662
292.419
276.168
259.274
242.186
225.376
209.226
193.988
179.803
166.712
154.705
143.744
133.762
124.685
116.432
108.927
102.096
95.8699
90.1881
84.9936
80.2364
75.8713
71.8576
68.16
64.7482
61.6051
58.8422
344.944
332.713
318.369
302.563
285.893
268.773
251.54
234.506
217.979
202.21
187.372
173.567
160.814
149.105
138.403
128.649
119.772
111.698
104.355
97.6722
91.5846
86.0327
80.9616
76.3222
72.0706
68.1664
64.5753
61.2649
58.2177
55.4149
344.702
330.553
313.401
294.906
276.196
257.81
239.995
222.887
206.617
191.291
176.983
163.727
151.514
140.319
130.096
120.782
112.31
104.607
97.6054
91.237
85.4402
80.1581
75.3378
70.9324
66.9
63.201
59.8041
56.6722
53.8093
50.9976
344.434
326.755
304.748
282.204
260.796
240.933
222.569
205.544
189.761
175.144
161.656
149.253
137.887
127.506
118.049
109.449
101.637
94.544
88.1036
82.2526
76.9329
72.0909
67.6774
63.6482
59.9649
56.5886
53.4963
50.6333
48.0759
45.3076
343.977
318.197
287.102
258.753
234.369
213.44
195.165
178.927
164.322
151.066
139.005
128.02
118.024
108.938
100.69
93.2095
86.4304
80.2876
74.7204
69.6714
65.088
60.9227
57.1313
53.6746
50.5198
47.6271
44.9952
42.5166
40.4369
37.8186
341.91
291.587
243.968
209.576
184.12
164.494
148.512
134.997
123.236
112.795
103.432
94.9926
87.3738
80.4764
74.2373
68.5984
63.5041
58.9018
54.7418
50.9787
47.5699
44.4789
41.6698
39.1126
36.786
34.6406
32.7353
30.8257
29.4764
27.2711
317.06
174.861
118.147
91.1382
75.6272
65.5163
58.1275
52.2838
47.4098
43.1966
39.4815
36.1691
33.1994
30.5384
28.1426
25.982
24.0325
22.2727
20.6836
19.2468
17.9476
16.7674
15.7026
14.7199
13.8541
13.0064
12.3338
11.5479
11.0607
10.2172
348.686
347.413
348.338
324.454
20.7923
46.4941
64.9695
77.5858
86.0478
91.3901
94.3581
95.5515
95.451
94.6625
93.0079
90.4666
87.7627
84.9698
82.1437
79.3251
76.5434
73.8212
71.1818
68.6854
66.6422
348.444
346.36
346.74
330.72
31.2919
61.2249
78.2077
88.0205
93.8028
97.0084
98.4009
98.4699
97.5688
96.3978
94.5114
91.5997
88.6135
85.6043
82.6109
79.662
76.7783
73.9758
71.2729
68.7262
66.6458
348.005
344.658
343.542
333.588
104.623
17.1383
78.9656
97.7813
105.683
108.714
109.296
108.536
106.95
104.81
102.28
99.8967
97.0887
93.5528
90.0858
86.7024
83.4159
80.2365
77.1706
74.2238
71.4063
68.7681
66.6189
347.479
342.632
337.197
331.663
306.46
92.4673
60.1247
138.896
140.635
138.338
134.754
130.504
125.956
121.349
116.809
112.383
108.087
104.175
100.079
95.8412
91.8141
87.9843
84.3419
80.8786
77.5859
74.4575
71.4944
68.7388
66.4986
346.95
340.726
333.753
327.596
312.052
283.465
243.748
220.085
199.879
183.764
170.607
159.493
149.797
141.153
133.351
126.256
119.769
113.81
108.307
102.872
97.9805
93.4128
89.1423
85.1421
81.3886
77.8613
74.5437
71.4274
68.5458
66.2029
346.473
339.082
330.774
320.144
305.813
290.652
266.827
241.42
221.405
203.519
187.797
173.991
161.8
150.963
141.268
132.549
124.674
117.535
111.057
105.062
99.5894
94.5535
89.8989
85.5835
81.572
77.8336
74.3437
71.0868
68.087
65.6394
346.066
337.697
328.336
317.161
303.356
286.415
267.472
247.664
228.715
211.131
195.113
180.663
167.675
156.003
145.498
136.025
127.464
119.709
112.67
106.236
100.36
94.9777
90.0308
85.4707
81.256
77.3505
73.7242
70.3558
67.2592
64.712
345.723
336.491
326.175
314.305
300.462
284.521
267.047
248.874
230.979
213.95
198.098
183.535
170.262
158.215
147.3
137.416
128.461
120.338
112.961
106.239
100.105
94.4976
89.3582
84.6364
80.2879
76.2734
72.5595
69.1207
65.96
63.3234
345.43
335.353
324.019
311.24
296.912
281.111
264.243
246.892
229.714
213.2
197.652
183.223
169.952
157.819
146.769
136.726
127.603
119.315
111.781
104.921
98.6663
92.9535
87.7256
82.9318
78.5269
74.4702
70.7267
67.2679
64.0856
61.3731
345.172
334.147
321.549
307.515
292.258
276.027
259.182
242.159
225.412
209.312
194.107
179.941
166.856
154.845
143.872
133.875
124.779
116.506
108.982
102.131
95.8861
90.187
84.9766
80.2049
75.8269
71.8018
68.0941
64.6735
61.5227
58.751
344.931
332.667
318.285
302.443
285.75
268.628
251.413
234.413
217.923
202.188
187.376
173.589
160.847
149.141
138.438
128.679
119.793
111.71
104.356
97.662
91.5636
86.0013
80.9203
76.2718
72.0119
68.1003
64.5025
61.1864
58.134
55.3245
344.694
330.52
313.335
294.804
276.066
257.666
239.852
222.759
206.51
191.207
176.919
163.68
151.479
140.292
130.073
120.76
112.286
104.58
97.5739
91.2003
85.398
80.1101
75.2843
70.8735
66.836
63.1324
59.7314
56.5956
53.7298
50.9127
344.429
326.731
304.696
282.118
260.677
240.793
222.419
205.398
189.627
175.027
161.556
149.168
137.815
127.445
117.995
109.4
101.591
94.4986
88.0578
82.2054
76.8835
72.039
67.6227
63.5906
59.9044
56.5254
53.4305
50.5649
48.0062
45.2335
343.974
318.181
287.06
258.678
234.26
213.306
195.017
178.779
164.181
150.938
138.892
127.923
117.941
108.867
100.628
93.155
86.3809
80.2416
74.6763
69.628
65.0445
60.8785
57.0858
53.6277
50.4713
47.5769
44.9435
42.4627
40.3829
37.7605
341.909
291.576
243.934
209.511
184.024
164.375
148.381
134.864
123.11
112.68
103.332
94.9074
87.302
80.4171
74.1883
68.5574
63.4691
58.871
54.7138
50.9523
47.5441
44.4531
41.6435
39.0854
36.7578
34.6109
32.7049
30.7928
29.4447
27.2349
317.06
174.856
118.127
91.1044
75.5796
65.4593
58.0654
52.2217
47.3516
43.1447
39.437
36.1322
33.1695
30.514
28.1231
25.9665
24.02
22.2625
20.675
19.2392
17.9406
16.7606
15.6959
14.7128
13.8469
12.9983
12.3262
11.538
11.0532
10.2068
348.212
345.461
344.817
335.455
3.36925
57.5191
83.7259
95.7924
101.436
103.856
104.453
103.889
102.514
100.556
98.4566
95.8292
92.592
89.3574
86.1557
83.0122
79.9458
76.9695
74.094
71.3333
68.7406
66.6255
348.006
344.661
343.551
333.584
95.2037
15.563
78.8233
97.6126
105.562
108.639
109.251
108.509
106.932
104.798
102.273
99.8914
97.0848
93.5497
90.0834
86.7004
83.4143
80.2351
77.1695
74.2229
71.4054
68.7673
66.6182
347.642
343.274
341.03
333.004
292.477
108.764
122.555
125.847
125.583
123.537
120.573
117.167
113.559
109.865
106.143
102.812
99.2408
95.2027
91.339
87.6406
84.1034
80.7242
77.4986
74.4241
71.504
68.7833
66.5711
347.194
341.601
335.323
329.685
311.065
263.324
198.004
182.995
173.766
163.57
154.804
147.1
140.037
133.445
127.275
121.501
116.089
111.002
106.424
101.748
97.1377
92.8065
88.729
84.8854
81.2586
77.8333
74.5973
71.547
68.7201
66.4243
346.741
340.008
332.451
322.306
311.71
288.429
259.211
232.812
211.178
193.425
178.691
166.193
155.336
145.728
137.121
129.35
122.29
115.849
109.941
104.092
98.9359
94.1461
89.69
85.5356
81.6546
78.0222
74.6179
71.4303
68.4896
66.0991
346.325
338.593
329.941
319.249
305.147
286.957
266.186
245.109
225.371
207.473
191.518
177.365
164.786
153.558
143.493
134.433
126.249
118.835
112.109
105.903
100.248
95.0549
90.2665
85.8376
81.7301
77.9112
74.354
71.041
67.9939
65.5065
345.962
337.363
327.777
316.507
302.823
286.426
268.109
249.073
230.532
213.124
197.118
182.574
169.432
157.576
146.877
137.213
128.469
120.544
113.35
106.777
100.778
95.287
90.2455
85.6037
81.319
77.3539
73.6771
70.266
67.1327
64.553
345.651
336.257
325.784
313.823
300.021
284.311
267.173
249.384
231.776
214.919
199.14
184.578
171.255
159.127
148.114
138.124
129.062
120.836
113.362
106.549
100.334
94.6534
89.4491
84.6704
80.2723
76.215
72.4644
68.9943
65.8062
63.1434
345.38
335.186
323.734
310.87
296.534
280.827
264.127
246.983
229.986
213.602
198.129
183.731
170.456
158.294
147.198
137.099
127.917
119.569
111.976
105.06
98.7529
92.9925
87.7215
82.8893
78.4505
74.3641
70.5949
67.114
63.912
61.1788
345.137
334.026
321.333
307.218
291.924
275.718
258.95
242.035
225.398
209.388
194.246
180.116
167.046
155.032
144.042
134.02
124.894
116.589
109.031
102.147
95.8705
90.1416
84.904
80.1075
75.7074
71.6626
67.9378
64.5023
61.3382
58.5505
344.907
332.577
318.117
302.198
285.451
268.314
251.123
234.175
217.748
202.073
187.31
173.558
160.838
149.142
138.439
128.673
119.776
111.678
104.307
97.5959
91.48
85.9007
80.8037
76.1403
71.8668
67.943
64.3345
61.0088
57.9483
55.1265
344.677
330.454
313.202
294.597
275.795
257.356
239.535
222.46
206.246
190.982
176.732
163.525
151.348
140.179
129.97
120.662
112.188
104.479
97.4675
91.0869
85.2767
79.9807
75.1466
70.7278
66.6828
62.9722
59.565
56.4236
53.5534
50.7273
344.418
326.684
304.59
281.939
260.43
240.494
222.096
205.074
189.32
174.747
161.307
148.948
137.622
127.273
117.84
109.257
101.455
94.3673
87.9283
82.0758
76.7524
71.9053
67.4858
63.4503
59.7605
56.3779
53.2798
50.4109
47.8505
45.0712
343.969
318.149
286.975
258.523
234.036
213.027
194.705
178.457
163.869
150.647
138.629
127.688
117.733
108.683
100.464
93.0075
86.2455
80.1149
74.5556
69.5111
64.9296
60.7642
56.9712
53.512
50.3542
47.458
44.8231
42.3399
40.26
37.6328
341.907
291.557
243.867
209.383
183.833
164.135
148.11
134.585
122.839
112.429
103.106
94.7089
87.1291
80.2685
74.0604
68.4465
63.3713
58.783
54.6328
50.876
47.4708
44.3813
41.5722
39.0138
36.6854
34.5372
32.6304
30.7159
29.3681
27.1547
317.06
174.847
118.092
91.042
75.4899
65.3493
57.9432
52.0971
47.2319
43.0351
39.3403
36.0491
33.0995
30.4546
28.0732
25.9245
23.9844
22.232
20.6481
19.2149
17.9181
16.7392
15.675
14.6919
13.826
12.9768
12.3046
11.5153
11.0302
10.1828
347.64
343.233
338.33
332.32
298.386
20.3814
118.45
128.51
130.066
128.749
125.97
122.457
118.624
114.68
110.723
106.795
103.065
99.0972
95.082
91.2323
87.5448
84.017
80.646
77.4278
74.3595
71.445
68.7288
66.5187
347.48
342.638
337.211
331.689
306.414
93.9311
59.2178
138.599
140.462
138.199
134.642
130.422
125.898
121.309
116.781
112.363
108.072
104.164
100.071
95.8348
91.8089
87.98
84.3383
80.8755
77.5833
74.4553
71.4925
68.7371
66.497
347.194
341.603
335.329
329.697
311.073
262.96
197.885
182.872
173.68
163.507
154.753
147.057
140.003
133.42
127.257
121.487
116.079
110.995
106.418
101.744
97.1343
92.8037
88.7266
84.8834
81.2569
77.8318
74.5961
71.5459
68.7191
66.4233
346.842
340.363
333.096
323.12
312.023
286.463
252.553
223.887
202.821
186.021
172.431
161.061
151.2
142.435
134.531
127.347
120.777
114.741
109.231
103.699
98.6517
93.9559
89.5768
85.4851
81.6548
78.0629
74.6912
71.53
68.6115
66.2417
346.477
339.119
330.891
320.503
306.159
291.171
267.368
243.474
222.084
203.568
187.668
173.922
161.895
151.247
141.732
133.172
125.432
118.405
111.995
105.512
100.037
94.976
90.2912
85.9453
81.9049
78.1402
74.6265
71.3485
68.3318
65.8777
346.134
337.967
328.873
317.988
304.292
287.319
268.159
248.378
229.319
211.647
195.592
181.146
168.184
156.543
146.069
136.621
128.078
120.338
113.318
106.856
100.979
95.5935
90.6392
86.0684
81.8408
77.9207
74.2789
70.8952
67.7874
65.2468
345.825
336.919
327.029
315.593
302.044
286.195
268.644
250.379
232.365
215.233
199.309
184.705
171.414
159.362
148.446
138.562
129.604
121.477
114.096
107.354
101.204
95.5792
90.4207
85.6775
81.3057
77.2663
73.5265
70.0622
66.8826
64.2591
345.553
335.938
325.24
313.131
299.345
283.871
267.121
249.763
232.505
215.88
200.218
185.683
172.321
160.109
148.987
138.877
129.691
121.343
113.751
106.83
100.516
94.7467
89.4632
84.6147
80.156
76.0462
72.2508
68.7424
65.5204
62.8225
345.311
334.952
323.324
310.322
295.941
280.316
263.801
246.892
230.114
213.897
198.53
184.183
170.916
158.73
147.587
137.429
128.18
119.762
112.101
105.119
98.7502
92.9333
87.6112
82.7333
78.2542
74.1327
70.3333
66.8264
63.6011
60.8404
345.087
333.85
321.014
306.768
291.394
275.186
258.49
241.694
225.185
209.288
194.231
180.154
167.112
155.103
144.102
134.057
124.9
116.561
108.966
102.046
95.7344
89.9725
84.7043
79.8801
75.4552
71.3887
67.645
64.1932
61.0144
58.2058
344.872
332.445
317.862
301.817
284.97
267.784
250.598
233.698
217.341
201.738
187.039
173.336
160.651
148.976
138.282
128.515
119.612
111.501
104.116
97.389
91.2564
85.6608
80.548
75.87
71.5832
67.6474
64.0285
60.6939
57.6257
54.7887
344.654
330.354
312.996
294.27
275.356
256.84
238.983
221.914
205.732
190.514
176.312
163.148
151.01
139.869
129.681
120.388
111.922
104.217
97.2049
90.822
85.0078
79.7068
74.8673
70.443
66.3926
62.6771
59.2655
56.1201
53.2476
50.4109
344.403
326.611
304.424
281.657
260.031
240.002
221.547
204.507
188.763
174.219
160.817
148.499
137.212
126.897
117.492
108.932
101.148
94.0733
87.6438
81.7976
76.4783
71.6336
67.2151
63.1798
59.4897
56.1065
53.0078
50.1378
47.5787
44.7925
343.961
318.1
286.844
258.282
233.679
212.574
194.188
177.913
163.325
150.125
138.141
127.24
117.324
108.311
100.124
92.6945
85.9552
79.8427
74.2975
69.2638
64.6904
60.531
56.7423
53.2861
50.1304
47.2355
44.6019
42.1183
40.0418
37.4099
341.904
291.527
243.765
209.187
183.538
163.757
147.677
134.129
122.384
111.994
102.704
94.3429
86.7993
79.9745
73.7983
68.2115
63.1588
58.5885
54.4525
50.7065
47.3094
44.2259
41.4211
38.8656
36.5394
34.3921
32.4869
30.5709
29.227
27.0091
317.059
174.834
118.043
90.9516
75.3576
65.1843
57.7563
51.9017
47.0393
42.8534
39.1745
35.9012
32.9695
30.3399
27.9725
25.8362
23.9065
22.1624
20.5853
19.1573
17.8644
16.6883
15.6263
14.6444
13.7799
12.9304
12.2602
11.4676
10.9896
10.1334
347.067
341.132
334.447
328.251
311.854
279.727
232.142
211.257
193.121
178.336
166.229
155.95
146.918
138.805
131.436
124.699
118.508
112.796
107.498
102.152
97.4147
92.9754
88.8111
84.8986
81.2172
77.749
74.48
71.4036
68.5548
66.2378
346.951
340.731
333.765
327.617
312.081
284.202
243.434
219.707
199.744
183.665
170.522
159.42
149.736
141.104
133.313
126.227
119.745
113.791
108.292
102.861
97.9712
93.405
89.1357
85.1364
81.3837
77.857
74.54
71.4241
68.5428
66.2002
346.741
340.011
332.458
322.318
311.727
288.397
259.143
232.75
211.122
193.374
178.644
166.152
155.3
145.698
137.097
129.33
122.275
115.837
109.931
104.085
98.9294
94.1405
89.6852
85.5315
81.651
78.0191
74.6152
71.4279
68.4874
66.0971
346.478
339.121
330.893
320.507
306.163
291.168
267.355
243.459
222.069
203.551
187.651
173.907
161.881
151.235
141.721
133.163
125.424
118.399
111.99
105.508
100.034
94.9732
90.2888
85.9432
81.903
78.1385
74.6251
71.3472
68.3306
65.8766
346.197
338.187
329.272
318.535
304.904
292.037
271.711
250.434
230.192
211.789
195.393
180.862
167.962
156.458
146.148
136.869
128.487
120.893
113.994
106.788
100.997
95.661
90.7429
86.2007
81.9959
78.094
74.4664
71.0938
67.9963
65.4696
345.924
337.277
327.694
316.528
303.085
287.038
269.198
250.615
232.346
215.057
199.066
184.466
171.222
159.241
148.406
138.603
129.723
121.669
114.362
107.65
101.55
95.9693
90.8458
86.13
81.7791
77.755
74.026
70.5692
67.3979
64.7963
345.671
336.408
326.155
314.478
300.979
285.557
268.684
251.123
233.656
216.862
201.086
186.486
173.098
160.888
149.784
139.698
130.538
122.217
114.653
107.745
101.446
95.6881
90.4122
85.5669
81.1071
76.9927
73.1896
69.6718
66.4446
63.7714
345.44
335.555
324.574
312.244
298.404
283.095
266.68
249.72
232.813
216.444
200.931
186.457
173.086
160.816
149.605
139.389
130.09
121.628
113.926
106.902
100.493
94.6376
89.2771
84.3607
79.8429
75.6824
71.8438
68.2988
65.0436
62.306
345.227
334.66
322.8
309.591
295.096
279.493
263.118
246.417
229.852
213.811
198.57
184.294
171.058
158.867
147.694
137.49
128.186
119.71
111.988
104.948
98.5236
92.6557
87.2872
82.368
77.8527
73.6998
69.8737
66.3442
63.0979
60.3068
345.026
333.625
320.59
306.147
290.625
274.355
257.685
240.979
224.588
208.805
193.842
179.835
166.837
154.851
143.855
133.802
124.628
116.266
108.646
101.699
95.3611
89.574
84.2823
79.4368
74.9931
70.9102
67.1528
63.6895
60.5002
57.6692
344.828
332.27
317.514
301.279
284.263
266.965
249.736
232.852
216.548
201.014
186.384
172.742
160.107
148.469
137.801
128.05
119.154
111.046
103.66
96.9279
90.7894
85.187
80.0673
75.3827
71.0899
67.1491
63.5262
60.1884
57.1181
54.2658
344.622
330.219
312.709
293.799
274.706
256.049
238.108
221.009
204.839
189.66
175.508
162.397
150.31
139.215
129.065
119.802
111.36
103.674
96.6765
90.3043
84.4981
79.2031
74.368
69.9473
65.8999
62.1871
58.7781
55.6352
52.7669
49.9211
344.383
326.511
304.189
281.247
259.439
239.256
220.694
203.6
187.845
173.321
159.959
147.69
136.454
126.188
116.829
108.308
100.558
93.5124
87.1068
81.2805
75.9777
71.1466
66.7396
62.7139
59.0321
55.6561
52.5642
49.6994
47.1487
44.3582
343.949
318.031
286.656
257.933
233.157
211.9
193.404
177.068
162.459
149.273
137.323
126.468
116.603
107.641
99.5023
92.1161
85.4149
79.3353
73.8181
68.808
64.2545
60.1117
56.337
52.8926
49.747
46.8606
44.2353
41.7568
39.6907
37.0571
341.901
291.486
243.626
208.914
183.121
163.216
147.044
133.445
121.686
111.309
102.05
93.7316
86.2334
79.456
73.3244
67.7778
62.7601
58.2197
54.1089
50.3839
47.0042
43.935
41.1421
38.5963
36.2786
34.1374
32.2397
30.3249
28.9944
26.7673
317.059
174.817
117.98
90.8337
75.1816
64.9595
57.4957
51.6224
46.756
42.5781
38.9149
35.6616
32.7513
30.1413
27.7928
25.6737
23.7592
22.0282
20.4621
19.0432
17.7579
16.5879
15.531
14.5531
13.6923
12.8441
12.1811
11.3704
10.9749
9.99194
346.556
339.355
331.236
320.672
306.067
290.09
265.04
238.968
218.811
201.004
185.478
171.919
159.986
149.398
139.933
131.423
123.734
116.76
110.427
104.555
99.1891
94.2436
89.6658
85.415
81.458
77.7653
74.3134
71.0882
68.1149
65.6889
346.474
339.086
330.783
320.157
305.828
290.649
266.772
241.38
221.359
203.47
187.748
173.945
161.759
150.926
141.236
132.522
124.651
117.516
111.041
105.048
99.5777
94.5434
89.8902
85.5759
81.5654
77.8278
74.3385
71.0822
68.0829
65.6355
346.326
338.596
329.946
319.258
305.156
286.952
266.169
245.085
225.343
207.442
191.486
177.334
164.757
153.532
143.47
134.414
126.232
118.82
112.097
105.892
100.238
95.0469
90.2595
85.8315
81.7248
77.9064
74.3498
71.0373
67.9904
65.5033
346.134
337.968
328.876
317.993
304.296
287.318
268.151
248.367
229.305
211.63
195.574
181.129
168.167
156.528
146.055
136.609
128.068
120.328
113.31
106.849
100.973
95.588
90.6344
86.0642
81.8371
77.9174
74.276
70.8925
67.785
65.2445
345.924
337.278
327.695
316.529
303.087
287.037
269.196
250.611
232.341
215.051
199.059
184.459
171.215
159.234
148.4
138.598
129.718
121.665
114.359
107.647
101.547
95.9666
90.8434
86.1279
81.7772
77.7533
74.0245
70.5678
67.3966
64.7952
345.712
336.57
326.466
314.932
301.522
286.093
269.162
251.516
233.968
217.112
201.298
186.681
173.291
161.088
149.996
139.924
130.779
122.472
114.922
108.021
101.73
95.9803
90.71
85.8684
81.4104
77.2963
73.4922
69.9725
66.7449
64.0806
345.51
335.858
325.187
313.178
299.588
284.408
268.014
251.005
234.019
217.565
201.979
187.446
174.032
161.732
150.499
140.266
130.953
122.479
114.767
107.729
101.308
95.4393
90.0657
85.1354
80.6028
76.4268
72.5722
69.0113
65.7444
63.02
345.318
335.123
323.794
311.154
297.145
281.872
265.666
249.006
232.399
216.272
200.925
186.543
173.204
160.919
149.661
139.379
130.002
121.459
113.676
106.576
100.095
94.1741
88.7549
83.7871
79.2249
75.0269
71.1572
67.5863
64.3064
61.5288
345.134
334.317
322.156
308.652
293.94
278.251
261.921
245.355
228.958
213.077
197.965
183.782
170.602
158.437
147.267
137.049
127.72
119.213
111.457
104.382
97.9246
92.0255
86.6286
81.6844
77.1475
72.9768
69.1363
65.5954
62.3378
59.5168
344.955
333.349
320.049
305.32
289.551
273.122
256.394
239.714
223.399
207.713
192.846
178.92
165.988
154.05
143.087
133.054
123.891
115.533
107.912
100.961
94.6183
88.8255
83.5284
78.6781
74.2307
70.1454
66.3869
62.9238
59.7345
56.8829
344.774
332.047
317.054
300.541
283.262
265.759
248.406
231.477
215.189
199.706
185.144
171.572
159.004
147.427
136.81
127.101
118.24
110.16
102.796
96.0824
89.9591
84.3697
79.2613
74.5867
70.3034
66.3716
62.7576
59.4286
56.3675
53.5033
344.583
330.042
312.318
293.141
273.775
254.887
236.784
219.597
203.403
188.244
174.14
161.091
149.071
138.043
127.955
118.748
110.356
102.714
95.7544
89.4154
83.6382
78.3687
73.5563
69.1557
65.1267
61.4306
58.0375
54.9088
52.0566
49.2065
344.357
326.376
303.862
280.667
258.589
238.166
219.425
202.222
186.42
171.899
158.572
146.359
135.19
124.994
115.702
107.245
99.5539
92.5607
86.202
80.4173
75.1512
70.3526
65.9745
61.9745
58.3158
54.9606
51.888
49.0397
46.5088
43.721
343.934
317.937
286.396
257.441
232.413
210.929
192.258
175.812
161.15
147.96
136.041
125.238
115.437
106.543
98.473
91.1519
84.5108
78.4857
73.0172
68.0504
63.535
59.4258
55.6808
52.2627
49.1407
46.2748
43.669
41.206
39.159
36.5348
341.895
291.432
243.437
208.542
182.547
162.459
146.145
132.458
120.657
110.28
101.049
92.7758
85.3324
78.6155
72.5441
67.0543
62.0886
57.5949
53.5253
49.8364
46.4883
43.4465
40.6776
38.1526
35.8535
33.7278
31.8455
29.9431
28.6207
26.4163
317.058
174.798
117.902
90.685
74.9544
64.6627
57.1441
51.2366
46.3549
42.1783
38.5281
35.2952
32.409
29.8231
27.4989
25.403
23.5099
21.7982
20.2491
18.845
17.5726
16.4137
15.3666
14.3967
13.5433
12.7022
12.0395
11.2563
10.7764
9.93554
346.123
337.882
328.643
317.522
303.619
286.328
266.933
246.71
227.535
209.868
193.864
179.486
166.601
155.044
144.659
135.302
126.85
119.196
112.249
105.896
100.092
94.7723
89.8799
85.3668
81.1923
77.321
73.7236
70.3796
67.3039
64.7745
346.067
337.7
328.341
317.17
303.363
286.412
267.457
247.64
228.684
211.095
195.076
180.626
167.64
155.97
145.468
135.999
127.441
119.689
112.653
106.221
100.347
94.9658
90.0203
85.4614
81.2478
77.3432
73.7176
70.3498
67.2538
64.707
345.963
337.365
327.781
316.513
302.828
286.424
268.098
249.056
230.51
213.099
197.091
182.547
169.405
157.55
146.854
137.192
128.45
120.528
113.335
106.764
100.766
95.277
90.2366
85.5958
81.312
77.3476
73.6714
70.2609
67.1281
64.5486
345.826
336.92
327.032
315.597
302.047
286.194
268.638
250.369
232.351
215.217
199.291
184.687
171.396
159.344
148.43
138.547
129.59
121.465
114.085
107.344
101.195
95.5716
90.4139
85.6715
81.3003
77.2613
73.5221
70.0581
66.8789
64.2557
345.671
336.409
326.156
314.479
300.98
285.556
268.681
251.118
233.649
216.853
201.076
186.476
173.088
160.878
149.774
139.689
130.53
122.21
114.646
107.739
101.44
95.6831
90.4077
85.5628
81.1035
76.9894
73.1866
69.669
66.4421
63.769
345.51
335.858
325.188
313.178
299.589
284.407
268.013
251.003
234.016
217.561
201.975
187.442
174.028
161.728
150.495
140.262
130.949
122.476
114.764
107.726
101.305
95.4369
90.0635
85.1334
80.601
76.4252
72.5707
69.0099
65.7431
63.0188
345.349
335.275
324.115
311.658
297.804
282.634
266.479
249.829
233.204
217.047
201.666
187.249
173.879
161.566
150.282
139.977
130.579
122.017
114.215
107.097
100.6
94.6633
89.2291
84.2466
79.6702
75.4584
71.5752
67.9916
64.7016
61.929
345.191
334.643
322.881
309.812
295.482
280.072
263.907
247.409
231.012
215.086
199.905
185.64
172.377
160.131
148.882
138.589
129.19
120.617
112.799
105.666
99.1543
93.2039
87.7589
82.7692
78.1893
73.9779
70.0987
66.5216
63.2334
60.419
345.034
333.917
321.367
307.446
292.376
276.455
260.036
243.496
227.196
211.44
196.453
182.377
169.286
157.188
146.064
135.878
126.571
118.076
110.327
103.257
96.8019
90.9045
85.5095
80.5677
76.0346
71.869
68.035
64.5017
61.2495
58.4026
344.876
333.013
319.358
304.222
288.071
271.348
254.445
237.699
221.4
205.78
191.003
177.172
164.331
152.475
141.583
131.61
122.499
114.185
106.601
99.6823
93.3679
87.6005
82.3264
77.4978
73.0708
69.0053
65.2661
61.8217
58.6495
55.7827
344.712
331.766
316.445
299.535
281.858
264.023
246.439
229.384
213.056
197.597
183.098
169.607
157.13
145.644
135.113
125.484
116.695
108.681
101.375
94.7141
88.638
83.0912
78.0216
73.3827
69.1322
65.2311
61.646
58.3438
55.3095
52.44
344.536
329.811
311.785
292.222
272.455
253.213
234.847
217.497
201.229
186.065
172.004
159.028
147.096
136.164
126.172
117.057
108.751
101.187
94.3004
88.0272
82.3097
77.0942
72.3309
67.9751
63.9871
60.3287
56.9705
53.8735
51.055
48.2092
344.323
326.194
303.407
279.844
257.374
236.597
217.582
200.2
184.306
169.766
156.47
144.323
133.24
123.141
113.949
105.589
97.9898
91.0826
84.803
79.0905
73.8899
69.1507
64.8264
60.8752
57.261
53.9461
50.9112
48.0954
45.6018
42.8264
343.915
317.808
286.027
256.741
231.354
209.541
190.611
173.992
159.237
146.024
134.131
123.389
113.669
104.868
96.8934
89.6669
83.116
77.175
71.7838
66.8873
62.4357
58.3841
54.6911
51.3197
48.2403
45.4123
42.8427
40.4084
38.3977
35.7912
341.888
291.357
243.177
208.026
181.748
161.401
144.882
131.057
119.181
108.786
99.5776
91.3555
83.9792
77.34
71.349
65.9382
61.0472
56.6227
52.6161
48.9842
45.6872
42.6912
39.9633
37.4747
35.2091
33.1116
31.2586
29.3756
28.0817
25.8952
317.058
174.776
117.805
90.4943
74.6574
64.2679
56.6697
50.7079
45.7964
41.6123
37.971
34.7585
31.8996
29.3433
27.0502
24.9853
23.1217
21.4374
19.9134
18.5319
17.2798
16.1388
15.1081
14.1519
13.3121
12.481
11.8303
11.0539
10.5844
9.75127
345.762
336.618
326.385
314.56
300.682
284.589
266.898
248.5
230.44
213.316
197.427
182.871
169.632
157.638
146.785
136.965
128.074
120.013
112.694
106.025
99.9395
94.3748
89.2734
84.5849
80.2655
76.2759
72.5835
69.1631
66.0184
63.3962
345.724
336.493
326.178
314.309
300.466
284.518
267.037
248.856
230.956
213.923
198.068
183.504
170.231
158.185
147.273
137.391
128.438
120.318
112.943
106.222
100.09
94.4842
89.3461
84.6256
80.2782
76.2646
72.5515
69.1135
65.9534
63.3172
345.651
336.259
325.786
313.826
300.023
284.309
267.165
249.37
231.758
214.898
199.116
184.553
171.23
159.103
148.091
138.103
129.043
120.819
113.346
106.535
100.321
94.6417
89.4386
84.6609
80.2638
76.2072
72.4574
68.9879
65.8004
63.1378
345.554
335.939
325.242
313.133
299.347
283.87
267.116
249.754
232.493
215.865
200.201
185.665
172.302
160.091
148.97
138.861
129.676
121.329
113.738
106.819
100.506
94.7373
89.4547
84.607
80.1489
76.0398
72.245
68.7371
65.5155
62.8179
345.44
335.556
324.575
312.245
298.404
283.094
266.676
249.714
232.805
216.434
200.92
186.445
173.074
160.804
149.594
139.378
130.08
121.618
113.917
106.894
100.486
94.6307
89.2708
84.355
79.8376
75.6776
71.8394
68.2948
65.0398
62.3025
345.318
335.124
323.794
311.155
297.145
281.871
265.664
249.003
232.395
216.266
200.919
186.536
173.197
160.912
149.654
139.372
129.996
121.453
113.67
106.57
100.09
94.1697
88.7509
83.7834
79.2215
75.0238
71.1543
67.5837
64.3039
61.5264
345.191
334.643
322.881
309.812
295.482
280.071
263.906
247.408
231.01
215.084
199.902
185.637
172.374
160.128
148.879
138.586
129.187
120.614
112.796
105.664
99.1521
93.2018
87.757
82.7674
78.1877
73.9763
70.0973
66.5203
63.2322
60.4179
345.061
334.096
321.779
308.112
293.266
277.511
261.195
244.704
228.411
212.635
197.61
183.488
170.346
158.197
147.024
136.789
127.436
118.898
111.109
104
97.5101
91.5794
86.1533
81.1824
76.6219
72.4307
68.5726
65.0168
61.745
58.9003
344.927
333.441
320.373
305.865
290.249
273.913
257.244
240.605
224.318
208.645
193.775
179.827
166.861
154.878
143.858
133.764
124.536
116.112
108.425
101.41
95.0061
89.1549
83.8029
78.9015
74.4066
70.2777
66.4792
62.98
59.7571
56.8917
344.787
332.597
318.454
302.741
286.024
268.838
251.615
234.696
218.344
202.755
188.063
174.345
161.628
149.899
139.128
129.27
120.264
112.046
104.55
97.7113
91.47
85.7696
80.5574
75.7859
71.4122
67.3966
63.7045
60.3043
57.1731
54.2994
344.639
331.403
315.623
298.144
279.889
261.558
243.611
226.332
209.906
194.442
180.004
166.614
154.259
142.906
132.509
123.01
114.344
106.444
99.2445
92.681
86.6945
81.23
76.236
71.6666
67.4805
63.639
60.1093
56.8584
53.8747
51.0102
344.477
329.501
311.043
290.923
270.576
250.825
232.071
214.47
198.076
182.885
168.869
155.983
144.173
133.376
123.525
114.55
106.378
98.9404
92.1709
86.0062
80.3886
75.2648
70.5857
66.3071
62.3901
58.797
55.4994
52.4571
49.696
46.8665
344.28
325.941
302.755
278.66
255.626
234.347
214.943
197.304
181.272
166.694
153.432
141.371
130.406
120.442
111.392
103.174
95.7117
88.9344
82.7761
77.1758
72.0785
67.4339
63.1962
59.3241
55.7825
52.5338
49.5605
46.7985
44.365
41.6157
343.888
317.624
285.49
255.723
229.823
207.55
188.261
171.401
156.512
143.26
131.396