/*--------------------------------*- C++ -*----------------------------------*\
  =========                 |
  \\      /  F ield         | OpenFOAM: The Open Source CFD Toolbox
   \\    /   O peration     | Website:  https://openfoam.org
    \\  /    A nd           | Version:  7
     \\/     M anipulation  |
\*---------------------------------------------------------------------------*/
FoamFile
{
    version     2.0;
    format      ascii;
    class       volScalarField;
    location    "700";
    object      p;
}
// * * * * * * * * * * * * * * * * * * * * * * * * * * * * * * * * * * * * * //

dimensions      [0 2 -2 0 0 0 0];

internalField   nonuniform List<scalar> 
27370
(
121.303
190.909
291.684
500.956
-40.9806
-25.2314
-15.6019
-9.33419
-5.16673
-2.5104
-0.893356
0.0471645
0.56558
0.91794
0.981831
0.819977
0.803984
0.747745
0.67239
0.598441
0.528189
0.457993
0.417147
0.292151
0.61917
105.117
157.844
259.482
435.151
-40.3434
-24.0098
-14.6228
-8.66983
-4.78046
-2.30458
-0.789671
0.0962548
0.583942
0.897137
0.9728
0.83207
0.803554
0.744868
0.668698
0.594031
0.523332
0.454118
0.408379
0.302862
0.571611
85.7653
109.436
192.284
315.85
-55.1967
-34.2451
-20.1028
-12.1125
-7.14375
-3.92093
-1.84988
-0.56273
0.200825
0.62207
0.867906
0.945098
0.828987
0.791067
0.7293
0.653838
0.579984
0.510131
0.442126
0.394618
0.294545
0.534987
68.5466
71.1755
110.309
183.706
206.243
-163.982
-54.456
-28.6812
-16.2512
-9.48875
-5.47067
-2.93715
-1.31605
-0.298504
0.313573
0.654088
0.807613
0.895437
0.811068
0.766933
0.702732
0.629452
0.557714
0.489733
0.423553
0.375094
0.278994
0.487059
52.6276
51.4879
59.7689
85.762
69.4296
11.8119
-65.021
-61.1747
-34.774
-19.7496
-11.3073
-6.44402
-3.54973
-1.76686
-0.650124
0.0422635
0.45434
0.665909
0.740094
0.827114
0.774
0.728174
0.663789
0.594471
0.526482
0.46174
0.398414
0.349847
0.258376
0.429454
38.3362
37.4361
37.2415
35.052
20.6446
-2.08435
-28.0572
-26.8249
-18.1283
-10.9462
-6.46027
-3.64446
-1.86308
-0.741144
-0.0413475
0.381732
0.621333
0.728919
0.786702
0.763999
0.723485
0.672871
0.612388
0.549024
0.486445
0.426424
0.367169
0.31954
0.233813
0.36595
26.9647
25.8177
23.998
20.1549
11.5605
-5.09681
-13.9757
-16.1947
-11.5638
-7.55387
-4.72622
-2.73637
-1.40118
-0.532695
0.0205371
0.36042
0.55619
0.650398
0.67787
0.68203
0.647407
0.601883
0.549282
0.49375
0.438265
0.38443
0.330548
0.285103
0.206539
0.300117
18.7638
17.5128
15.3324
10.9851
4.93255
-3.56037
-8.55762
-9.66969
-7.4867
-5.24663
-3.41823
-2.02562
-1.04379
-0.383487
0.0478326
0.317991
0.476238
0.556366
0.58621
0.58384
0.556526
0.519445
0.47609
0.429754
0.382791
0.336493
0.289323
0.247502
0.177729
0.235336
13.2186
11.9014
9.62846
5.70223
1.31803
-3.41018
-5.95503
-6.42133
-5.21144
-3.807
-2.56707
-1.57664
-0.846428
-0.33671
0.00633084
0.227821
0.362108
0.434509
0.465656
0.468541
0.452265
0.425988
0.393537
0.35781
0.320688
0.283214
0.244117
0.207526
0.148343
0.174543
9.76077
8.35658
6.0504
2.7089
-0.44118
-3.20254
-4.5401
-4.65933
-3.87286
-2.92344
-2.04858
-1.32392
-0.770259
-0.368169
-0.0877887
0.100467
0.220685
0.291447
0.327798
0.340348
0.336428
0.322587
0.302447
0.278518
0.252379
0.224919
0.195249
0.165615
0.118985
0.119998
7.86886
6.36091
4.05099
1.28077
-1.02247
-2.74379
-3.51697
-3.52356
-3.00516
-2.35598
-1.73308
-1.19907
-0.775125
-0.453928
-0.219864
-0.0546994
0.057973
0.131327
0.176125
0.200446
0.210108
0.210015
0.203295
0.192135
0.177948
0.161568
0.142625
0.121721
0.0897669
0.0731572
7.07201
5.48761
3.27806
1.04616
-0.707142
-1.94059
-2.53362
-2.60838
-2.33514
-1.9359
-1.52064
-1.14349
-0.82646
-0.572772
-0.376923
-0.229463
-0.120744
-0.0424132
0.0126454
0.0500989
0.0742892
0.0888456
0.0963323
0.0986699
0.0971837
0.0927533
0.0856923
0.0752243
0.0601556
0.0345611
6.94591
5.39427
3.47107
1.71404
0.27751
-0.801961
-1.44913
-1.71739
-1.70963
-1.55658
-1.34091
-1.11185
-0.896281
-0.706897
-0.547275
-0.416145
-0.310368
-0.226313
-0.160344
-0.109173
-0.0700071
-0.0403465
-0.0182214
-0.00196784
0.00969872
0.0177747
0.0234526
0.0248812
0.0287623
0.00366394
7.07179
5.78669
4.32617
2.94174
1.6614
0.564202
-0.252418
-0.778328
-1.0557
-1.15853
-1.14889
-1.07287
-0.963302
-0.841664
-0.720845
-0.607918
-0.50634
-0.417385
-0.341003
-0.276397
-0.222432
-0.177736
-0.140976
-0.110792
-0.0859115
-0.065233
-0.046496
-0.0321665
-0.00809923
-0.0224145
7.01631
6.30622
5.34014
4.24103
3.07156
1.93747
0.952455
0.179816
-0.36882
-0.721458
-0.918371
-0.999919
-1.00206
-0.95377
-0.876616
-0.785808
-0.691498
-0.600083
-0.515268
-0.438894
-0.371576
-0.313138
-0.262889
-0.219897
-0.182855
-0.150656
-0.120109
-0.0929333
-0.0505165
-0.0464951
6.89574
6.60578
5.99679
5.1289
4.09449
2.99475
1.94083
1.02385
0.292237
-0.247452
-0.613526
-0.835505
-0.946298
-0.976983
-0.953732
-0.896981
-0.821834
-0.738914
-0.655281
-0.575322
-0.5015
-0.434958
-0.375869
-0.323914
-0.278058
-0.237326
-0.198294
-0.161604
-0.105313
-0.0796972
105.067
157.855
259.28
434.354
-40.0506
-23.8444
-14.579
-8.65886
-4.77755
-2.30375
-0.789485
0.096266
0.583908
0.897116
0.972799
0.832071
0.80356
0.74488
0.668714
0.594049
0.523351
0.454136
0.408395
0.302873
0.571622
93.5016
130.126
228.189
381.39
-38.1567
-22.3798
-13.5547
-8.01861
-4.41577
-2.11264
-0.693823
0.140912
0.600818
0.879778
0.961157
0.839221
0.800662
0.740055
0.663629
0.588634
0.51778
0.449516
0.399804
0.313737
0.521736
78.4306
91.6567
167.336
266.608
377.51
-56.8496
-32.6556
-19.0075
-11.3476
-6.65511
-3.63593
-1.69575
-0.485265
0.235964
0.634294
0.853223
0.932173
0.830723
0.78562
0.722771
0.647491
0.573702
0.503976
0.437015
0.386097
0.304593
0.487027
63.0429
63.4756
90.5117
158.859
168.093
23.9881
-139.358
-52.3985
-27.6272
-15.5894
-9.03332
-5.16782
-2.75051
-1.21
-0.243461
0.338512
0.662316
0.798847
0.882208
0.806667
0.758449
0.694141
0.621454
0.550239
0.48273
0.417764
0.366512
0.2874
0.443441
48.6096
47.5195
52.2721
74.459
59.6229
1.08794
-55.9847
-54.6121
-32.5228
-18.8
-10.8271
-6.16744
-3.38304
-1.66977
-0.598451
0.0654162
0.46083
0.666013
0.733002
0.815981
0.764265
0.716887
0.653278
0.584903
0.517843
0.453895
0.391955
0.341247
0.264918
0.390901
35.6106
34.619
33.7263
29.8691
17.0904
-1.15832
-24.6788
-24.0353
-16.6232
-10.2217
-6.0622
-3.41814
-1.73626
-0.674427
-0.0119344
0.388607
0.615041
0.717577
0.776074
0.750117
0.709574
0.659484
0.600189
0.538104
0.476792
0.417837
0.360117
0.311009
0.238401
0.332914
25.2091
24.0538
22.0498
17.7792
9.60861
-4.87822
-12.6587
-14.6578
-10.7604
-7.10176
-4.45343
-2.58022
-1.31502
-0.489116
0.0374097
0.360842
0.546743
0.635668
0.660546
0.664063
0.631332
0.586943
0.535798
0.481821
0.427832
0.375273
0.323032
0.276751
0.209181
0.272789
17.6543
16.4564
14.2693
9.98274
4.15785
-3.49612
-7.98136
-8.9782
-7.081
-4.9959
-3.26981
-1.94708
-1.00733
-0.372371
0.0434158
0.304591
0.458061
0.5362
0.565171
0.564203
0.5389
0.503409
0.461802
0.4172
0.371872
0.326996
0.281518
0.239456
0.178537
0.213609
12.5281
11.2957
9.08703
5.29578
1.07111
-3.26759
-5.64316
-6.06339
-4.98202
-3.66399
-2.48509
-1.53741
-0.834273
-0.340818
-0.00750957
0.208682
0.340578
0.412545
0.44429
0.448553
0.434133
0.409655
0.379042
0.345089
0.309639
0.273653
0.236234
0.19992
0.147529
0.158053
9.33078
8.02638
5.80874
2.5973
-0.452776
-3.04298
-4.32613
-4.44428
-3.73029
-2.83478
-1.99988
-1.30408
-0.769156
-0.378587
-0.104879
0.0799067
0.198805
0.269682
0.306973
0.320936
0.318781
0.306716
0.288342
0.266112
0.241587
0.2156
0.187524
0.158588
0.116845
0.108188
7.59109
6.18994
3.97539
1.31045
-0.930183
-2.58249
-3.34732
-3.37306
-2.90291
-2.2921
-1.69871
-1.18629
-0.776656
-0.464569
-0.235839
-0.0734642
0.0381456
0.111594
0.157189
0.182734
0.19389
0.195348
0.190184
0.180543
0.167819
0.152818
0.135314
0.11542
0.0866653
0.0653356
6.87699
5.4011
3.28218
1.12517
-0.58794
-1.79371
-2.39326
-2.49085
-2.25228
-1.88228
-1.49023
-1.13034
-0.825336
-0.579609
-0.388692
-0.244039
-0.13664
-0.0586028
-0.00317259
0.0350781
0.0603349
0.0760753
0.0848009
0.088385
0.0881321
0.0849143
0.079074
0.0698081
0.05652
0.0299752
6.79164
5.34477
3.49623
1.788
0.380175
-0.684309
-1.33741
-1.62307
-1.6391
-1.50773
-1.31012
-1.09515
-0.889967
-0.707885
-0.553162
-0.42515
-0.321183
-0.237994
-0.172232
-0.120818
-0.0811016
-0.0507073
-0.0277337
-0.0105679
0.00204568
0.0111122
0.0177468
0.0204474
0.0250055
0.00152791
6.93625
5.739
4.33011
2.97906
1.72411
0.642445
-0.172486
-0.706079
-0.996785
-1.11369
-1.11699
-1.05192
-0.951065
-0.836042
-0.720056
-0.610533
-0.511242
-0.42372
-0.348135
-0.28386
-0.229884
-0.184942
-0.147765
-0.11705
-0.0915589
-0.0701705
-0.0507837
-0.0352721
-0.0113057
-0.0227121
6.91096
6.23671
5.30221
4.22939
3.08431
1.96988
0.99646
0.227781
-0.3229
-0.680934
-0.884787
-0.973609
-0.982554
-0.94018
-0.867929
-0.781021
-0.689697
-0.600485
-0.517224
-0.441885
-0.375192
-0.317062
-0.266881
-0.22377
-0.18648
-0.153886
-0.122977
-0.0949583
-0.0528997
-0.0459386
6.8061
6.52224
5.93072
5.0814
4.06634
2.98573
1.94784
1.04209
0.316745
-0.220653
-0.587293
-0.811684
-0.925862
-0.960243
-0.940581
-0.887071
-0.814701
-0.734062
-0.652234
-0.57365
-0.500832
-0.434984
-0.376336
-0.32461
-0.27882
-0.237996
-0.198818
-0.161723
-0.105635
-0.0785543
85.7447
109.515
192.38
316.173
-54.5085
-34.0286
-19.9644
-12.0525
-7.12156
-3.91319
-1.84723
-0.561864
0.201063
0.622096
0.8679
0.945124
0.829015
0.7911
0.729345
0.653891
0.580041
0.510188
0.44218
0.394664
0.294576
0.535017
78.4335
91.7059
167.479
267.015
378.428
-57.3743
-32.594
-18.9514
-11.3176
-6.64251
-3.63112
-1.69399
-0.48466
0.236137
0.634313
0.853221
0.932198
0.830748
0.785646
0.722804
0.647528
0.573741
0.504015
0.437051
0.386127
0.304614
0.487046
67.5515
69.2636
121.639
186.256
225.56
-55.5668
-29.4336
-16.7368
-9.78289
-5.64479
-3.03481
-1.3655
-0.318988
0.309272
0.656133
0.825883
0.901465
0.815781
0.766756
0.703118
0.629583
0.557489
0.489264
0.42386
0.372179
0.295181
0.454092
54.6277
53.2223
64.7348
109.411
91.1103
20.7099
-93.7815
-89.913
-46.4835
-24.9746
-14.0514
-8.04039
-4.52523
-2.35864
-0.990589
-0.134189
0.382284
0.668653
0.771759
0.849845
0.785037
0.735281
0.671745
0.601411
0.53241
0.466831
0.403757
0.352272
0.277731
0.412881
42.2807
40.9532
42.0175
43.8324
46.7993
0.0435151
-39.8698
-42.3132
-27.7671
-16.6821
-9.75964
-5.57424
-3.03848
-1.47508
-0.499389
0.104461
0.464301
0.650888
0.70223
0.781753
0.736712
0.689785
0.62832
0.562823
0.498441
0.436827
0.377117
0.326749
0.255053
0.36318
31.2413
30.116
28.8406
25.6404
12.6063
-5.62892
-19.0177
-19.9695
-14.2616
-9.01269
-5.42863
-3.07705
-1.55798
-0.59142
0.0140395
0.381232
0.589433
0.684306
0.738817
0.713711
0.676891
0.629352
0.573139
0.514334
0.456067
0.399782
0.344591
0.296387
0.228443
0.308333
22.3845
21.2794
19.3475
15.0185
7.19099
-3.64685
-11.0934
-12.3235
-9.40211
-6.37435
-4.04764
-2.36383
-1.21019
-0.44982
0.0378238
0.33892
0.51295
0.596985
0.620875
0.624601
0.595737
0.554879
0.50731
0.456881
0.406177
0.356528
0.307051
0.262191
0.199253
0.251485
15.8785
14.7999
12.7754
8.71574
3.18827
-3.16677
-7.10815
-7.87668
-6.38213
-4.5884
-3.04112
-1.83543
-0.966625
-0.372914
0.0189073
0.26724
0.414884
0.491686
0.521706
0.523286
0.502053
0.470452
0.43266
0.391726
0.34979
0.307955
0.265384
0.225174
0.168777
0.195569
11.4339
10.3445
8.33488
4.80733
0.839676
-2.97789
-5.13257
-5.49446
-4.59269
-3.42835
-2.35718
-1.4834
-0.827148
-0.360988
-0.0431758
0.165248
0.294371
0.366729
0.400618
0.408076
0.397589
0.377006
0.350179
0.319826
0.287723
0.254785
0.220306
0.186158
0.138085
0.14314
8.66348
7.51057
5.49199
2.50193
-0.367857
-2.73317
-3.95111
-4.08491
-3.48105
-2.68346
-1.92118
-1.27681
-0.775165
-0.404704
-0.14221
0.0371201
0.154395
0.226105
0.265655
0.282682
0.284085
0.275615
0.260749
0.241868
0.220491
0.197427
0.172202
0.145608
0.107878
0.0961773
7.17529
5.92752
3.89712
1.40519
-0.718478
-2.27788
-3.03867
-3.10713
-2.71756
-2.17801
-1.63917
-1.16621
-0.782857
-0.487306
-0.268137
-0.110622
-0.000685545
0.0731799
0.120476
0.148479
0.162534
0.167015
0.164866
0.158153
0.148234
0.135901
0.121036
0.103505
0.0783554
0.0559547
6.59583
5.26891
3.30955
1.28048
-0.355948
-1.52224
-2.1356
-2.27686
-2.09869
-1.78297
-1.43409
-1.10633
-0.823812
-0.59298
-0.411316
-0.271918
-0.166974
-0.0894781
-0.0333351
0.0064259
0.0336861
0.0516707
0.0627412
0.068687
0.0707685
0.0698408
0.0663095
0.0592745
0.0490749
0.0229359
6.5706
5.25904
3.53653
1.9191
0.567014
-0.472021
-1.13391
-1.44999
-1.50729
-1.41541
-1.25116
-1.06242
-0.876788
-0.70859
-0.563282
-0.441324
-0.340929
-0.259519
-0.194274
-0.142504
-0.10184
-0.0701277
-0.0456074
-0.0267615
-0.0123901
-0.00151382
0.00699709
0.0116481
0.0186719
-0.00344101
6.73516
5.64407
4.32318
3.0373
1.83022
0.777507
-0.0309998
-0.575457
-0.88752
-1.02865
-1.05493
-1.00982
-0.925224
-0.822836
-0.716302
-0.613595
-0.519011
-0.434556
-0.360785
-0.297387
-0.243596
-0.198341
-0.160498
-0.128863
-0.102269
-0.0796337
-0.0588872
-0.0418383
-0.0161293
-0.0257768
6.72515
6.10847
5.22819
4.2035
3.10193
2.02262
1.07116
0.311123
-0.241623
-0.608211
-0.823758
-0.925152
-0.946078
-0.914298
-0.850943
-0.771199
-0.68544
-0.60039
-0.520115
-0.446803
-0.381371
-0.323904
-0.273922
-0.230651
-0.192923
-0.159666
-0.127936
-0.098885
-0.0558101
-0.0472254
6.63299
6.37112
5.81035
4.99545
4.01691
2.97191
1.96379
1.07893
0.365193
-0.168216
-0.536298
-0.765573
-0.886419
-0.928016
-0.915323
-0.868086
-0.80108
-0.724839
-0.646489
-0.570554
-0.499671
-0.435157
-0.377353
-0.326066
-0.280391
-0.239407
-0.199876
-0.162222
-0.105786
-0.0777714
68.5348
71.2028
110.503
184.021
205.65
-149.376
-54.6652
-28.6995
-16.2168
-9.45583
-5.45187
-2.92822
-1.31222
-0.296979
0.314124
0.654253
0.807699
0.895579
0.811197
0.76706
0.702867
0.629593
0.557855
0.489867
0.423674
0.375196
0.279063
0.487124
63.0439
63.4906
90.6209
159.207
168.497
25.4872
-136.33
-52.6513
-27.6627
-15.5734
-9.01259
-5.15453
-2.74378
-1.20697
-0.242202
0.338993
0.66248
0.798935
0.882344
0.806788
0.758566
0.694262
0.621577
0.55036
0.482844
0.417866
0.366597
0.287459
0.443493
54.6278
53.2189
64.741
109.532
91.4013
20.18
-93.5026
-90.4538
-46.5941
-25.0034
-14.0521
-8.03466
-4.52033
-2.35575
-0.989141
-0.133531
0.382562
0.668764
0.771837
0.849949
0.785128
0.735366
0.671829
0.601493
0.53249
0.466905
0.403822
0.352326
0.277768
0.412913
44.6494
42.8846
43.6285
49.3098
55.3107
0.75962
-56.4608
-57.6942
-36.3809
-20.8938
-11.9482
-6.80155
-3.76288
-1.90454
-0.742488
-0.0184104
0.418388
0.66151
0.719972
0.796571
0.747489
0.698944
0.637275
0.570811
0.505458
0.443017
0.382698
0.332019
0.260365
0.374524
34.7611
33.3772
31.9468
30.4247
15.8452
-1.73351
-25.4175
-29.7043
-21.744
-13.8605
-8.3493
-4.823
-2.6244
-1.2534
-0.395377
0.136173
0.45381
0.620914
0.655126
0.726499
0.692848
0.648749
0.590815
0.529806
0.46958
0.411583
0.355075
0.306174
0.237905
0.32824
25.9912
24.8649
23.044
19.2514
9.48721
-4.55218
-14.1001
-15.1728
-11.4724
-7.58295
-4.68327
-2.6898
-1.3701
-0.517285
0.0222688
0.352279
0.541334
0.629814
0.681462
0.658233
0.627769
0.584674
0.533197
0.479333
0.425622
0.373349
0.321763
0.27567
0.2117
0.277182
18.922
17.9275
16.0485
12.0013
5.1855
-3.14552
-8.88199
-9.84084
-7.84532
-5.49729
-3.56176
-2.11391
-1.09982
-0.420534
0.0202835
0.295568
0.45687
0.536879
0.561533
0.566766
0.543551
0.50807
0.465803
0.420574
0.374675
0.329313
0.283755
0.241581
0.183102
0.224295
13.6686
12.7521
10.9541
7.28184
2.38628
-2.77199
-6.00264
-6.62827
-5.52993
-4.07313
-2.75223
-1.69752
-0.92198
-0.382493
-0.0217748
0.210282
0.350974
0.426766
0.45898
0.464316
0.448849
0.422919
0.390625
0.354964
0.317913
0.280497
0.242037
0.20497
0.153398
0.172335
10.0577
9.15017
7.40758
4.23478
0.688403
-2.56941
-4.44109
-4.7805
-4.08723
-3.11616
-2.18729
-1.41243
-0.819714
-0.391211
-0.0946121
0.103172
0.228545
0.301531
0.338495
0.350401
0.345406
0.330335
0.308864
0.28362
0.256284
0.227727
0.197401
0.166697
0.123649
0.123717
7.81604
6.85371
5.09879
2.40268
-0.202316
-2.30987
-3.43512
-3.60717
-3.14242
-2.47418
-1.81068
-1.23705
-0.781839
-0.44
-0.193624
-0.0223046
0.092378
0.164995
0.207517
0.228681
0.234947
0.231461
0.221492
0.207318
0.190389
0.171491
0.150293
0.127258
0.0945536
0.0803189
6.64106
5.58667
3.80059
1.53981
-0.417909
-1.86396
-2.61427
-2.7433
-2.45858
-2.0152
-1.55169
-1.13384
-0.787943
-0.516325
-0.31129
-0.161206
-0.0541299
0.0199075
0.0692729
0.100479
0.118416
0.127025
0.129036
0.126403
0.120422
0.111863
0.100727
0.0866729
0.0663206
0.0433571
6.22765
5.08999
3.34403
1.48787
-0.0404512
-1.15411
-1.78158
-1.98034
-1.8816
-1.63959
-1.35052
-1.06794
-0.817576
-0.608391
-0.440451
-0.309076
-0.208124
-0.131838
-0.0750483
-0.0334423
-0.00357756
0.0174146
0.0316828
0.0408896
0.0462262
0.0485176
0.0482519
0.0444101
0.0385358
0.0132805
6.27385
5.13517
3.58301
2.09041
0.817023
-0.185171
-0.854814
-1.20944
-1.32076
-1.28232
-1.16412
-1.01219
-0.854421
-0.706299
-0.574826
-0.461938
-0.36706
-0.28857
-0.224391
-0.172391
-0.130606
-0.0971936
-0.070608
-0.0494719
-0.0326697
-0.0192698
-0.00810534
-0.000729248
0.00989522
-0.0104451
6.46013
5.50497
4.30407
3.10881
1.96903
0.958275
0.161999
-0.394401
-0.733529
-0.906875
-0.964566
-0.94721
-0.885598
-0.801323
-0.708513
-0.615837
-0.528293
-0.448517
-0.377609
-0.315698
-0.262368
-0.216827
-0.178157
-0.145307
-0.117212
-0.0928562
-0.0701897
-0.051041
-0.0226967
-0.0302939
6.46753
5.92634
5.11961
4.16161
3.12069
2.09102
1.17182
0.425733
-0.128111
-0.505364
-0.736471
-0.855057
-0.892663
-0.875828
-0.825153
-0.755721
-0.678041
-0.599095
-0.523246
-0.45298
-0.389485
-0.333079
-0.283476
-0.240053
-0.201759
-0.167604
-0.134722
-0.104284
-0.0596477
-0.0492865
6.39257
6.16024
5.64064
4.87326
3.94563
2.95034
1.9842
1.12922
0.432518
-0.0946137
-0.464197
-0.699969
-0.829977
-0.881642
-0.878765
-0.840424
-0.781069
-0.711138
-0.637801
-0.565705
-0.49764
-0.435084
-0.378528
-0.327905
-0.28242
-0.241231
-0.201205
-0.162799
-0.105821
-0.0768397
52.6221
51.4701
59.7956
85.9352
69.7165
11.0657
-64.6111
-61.6764
-35.002
-19.8112
-11.3151
-6.43663
-3.54126
-1.76092
-0.646682
0.0440653
0.455239
0.66638
0.74035
0.827503
0.77433
0.728486
0.664093
0.594766
0.526762
0.461999
0.398642
0.350037
0.258504
0.429572
48.6073
47.5063
52.2776
74.5873
59.7411
10.0957
-56.5976
-54.8583
-32.7362
-18.8538
-10.8365
-6.16328
-3.37688
-1.66513
-0.595667
0.0669117
0.461593
0.666419
0.733232
0.816354
0.764579
0.717181
0.653562
0.585174
0.5181
0.454131
0.392162
0.341418
0.265036
0.391002
42.2787
40.9441
42.0033
43.8519
46.8961
-0.0875036
-40.2402
-42.5496
-27.8713
-16.7178
-9.76906
-5.57401
-3.03579
-1.47262
-0.497755
0.105403
0.46481
0.651176
0.70241
0.782079
0.736983
0.690036
0.628558
0.563048
0.498651
0.437019
0.377284
0.326886
0.255148
0.363261
34.7598
33.3736
31.9399
30.4143
15.8317
-1.80812
-25.5295
-29.7797
-21.784
-13.8771
-8.35525
-4.82425
-2.62399
-1.25268
-0.394812
0.136526
0.454009
0.621033
0.655207
0.726711
0.69302
0.648906
0.590963
0.529944
0.469707
0.411697
0.355175
0.306255
0.237962
0.328287
27.335
26.17
24.2716
20.6611
10.2384
-2.32967
-15.3011
-19.1458
-15.5267
-10.6654
-6.72841
-3.98748
-2.19503
-1.04925
-0.323693
0.129004
0.401602
0.549674
0.574391
0.655252
0.632892
0.59418
0.541602
0.486627
0.431981
0.378875
0.32663
0.280189
0.215955
0.286137
20.7495
19.7937
17.9707
14.0526
6.468
-3.75016
-9.92176
-10.9513
-8.76675
-6.07742
-3.87278
-2.26863
-1.16888
-0.442327
0.0242128
0.313061
0.480852
0.563407
0.611023
0.588063
0.563789
0.526773
0.481747
0.43433
0.386552
0.339541
0.292633
0.249678
0.190438
0.239659
15.396
14.5903
12.9377
9.25769
3.69249
-2.6808
-6.76499
-7.59697
-6.3186
-4.58928
-3.05562
-1.86108
-0.998953
-0.407615
-0.0170284
0.231353
0.380189
0.457562
0.485559
0.493853
0.47724
0.448599
0.413148
0.374528
0.334746
0.294881
0.254318
0.215876
0.162754
0.191559
11.3799
10.6617
9.16007
5.92
1.79771
-2.32475
-4.84848
-5.40068
-4.64247
-3.51587
-2.43826
-1.54988
-0.879735
-0.402216
-0.0767974
0.136918
0.270048
0.345192
0.380682
0.390845
0.382328
0.363406
0.337958
0.308864
0.277923
0.246074
0.212783
0.179904
0.134171
0.144386
8.61288
7.90863
6.46852
3.68918
0.627241
-2.09743
-3.67591
-4.01815
-3.52855
-2.76165
-1.9919
-1.33055
-0.811879
-0.428485
-0.15735
0.027478
0.148142
0.221713
0.262278
0.27947
0.280985
0.272561
0.257615
0.238634
0.217177
0.194068
0.168912
0.142668
0.105735
0.10038
6.91377
6.15941
4.69529
2.32842
0.0270933
-1.82015
-2.84445
-3.06734
-2.74948
-2.22477
-1.67539
-1.18522
-0.786103
-0.479523
-0.253483
-0.0926144
0.018265
0.0914344
0.137141
0.163002
0.1749
0.177306
0.173204
0.16472
0.153218
0.139447
0.123225
0.104707
0.0781406
0.0612961
6.06103
5.21756
3.70245
1.70343
-0.0611822
-1.38529
-2.12065
-2.31836
-2.14841
-1.81451
-1.43959
-1.08789
-0.788011
-0.546442
-0.359674
-0.219605
-0.116861
-0.0433231
0.00799812
0.0426599
0.0649756
0.0783701
0.0852907
0.0875331
0.0863092
0.0823552
0.0757984
0.0660875
0.0516057
0.0282801
5.81589
4.88626
3.38042
1.72268
0.32223
-0.729537
-1.36787
-1.62913
-1.6183
-1.46087
-1.24241
-1.0143
-0.803535
-0.621591
-0.471371
-0.350716
-0.255472
-0.181375
-0.124383
-0.0809953
-0.0483228
-0.0239354
-0.00595989
0.0070957
0.0163279
0.0225156
0.0262367
0.026334
0.02575
0.00176048
5.9308
4.98387
3.62612
2.27883
1.09983
0.144035
-0.529108
-0.92389
-1.09455
-1.11709
-1.05297
-0.945212
-0.821536
-0.698458
-0.584595
-0.483529
-0.39609
-0.321785
-0.259434
-0.207587
-0.164779
-0.129558
-0.100649
-0.0768572
-0.0571786
-0.0407509
-0.0263661
-0.0156668
-0.000653849
-0.0187624
6.13512
5.3318
4.26921
3.18062
2.12182
1.16346
0.385936
-0.180263
-0.547824
-0.75719
-0.851256
-0.866839
-0.833039
-0.771061
-0.695418
-0.615491
-0.537054
-0.463472
-0.396483
-0.336747
-0.284275
-0.238618
-0.199118
-0.164918
-0.135078
-0.108683
-0.0837027
-0.0620205
-0.0304902
-0.0356121
6.15987
5.70329
4.9818
4.10274
3.13461
2.16549
1.28711
0.560419
0.00785444
-0.380218
-0.628763
-0.767386
-0.824893
-0.826194
-0.791116
-0.734515
-0.666997
-0.595814
-0.525663
-0.459379
-0.398472
-0.343543
-0.294544
-0.251042
-0.212131
-0.176931
-0.142671
-0.11058
-0.0640821
-0.0516364
6.10364
5.90472
5.43316
4.7224
3.856
2.92078
2.00592
1.1881
0.513241
-0.00515402
-0.375697
-0.618786
-0.75962
-0.823432
-0.832553
-0.805187
-0.755342
-0.693304
-0.626276
-0.559039
-0.494564
-0.434521
-0.379581
-0.329836
-0.284624
-0.24321
-0.202589
-0.163292
-0.10569
-0.0755958
38.3312
37.4238
37.2279
35.0712
20.613
-2.33808
-28.3492
-27.0351
-18.226
-10.9789
-6.46904
-3.64425
-1.8604
-0.738224
-0.0389412
0.383562
0.622708
0.729992
0.787551
0.764735
0.724124
0.673461
0.612942
0.549543
0.486927
0.42686
0.367548
0.319852
0.234024
0.36614
35.606
34.6077
33.7107
29.8801
17.1117
-1.73592
-25.0391
-24.1912
-16.6959
-10.246
-6.06895
-3.4181
-1.73412
-0.672033
-0.00989821
0.390202
0.616272
0.718558
0.776864
0.750816
0.710184
0.660045
0.600714
0.538594
0.477245
0.418246
0.360471
0.3113
0.238602
0.333084
31.2368
30.1069
28.8249
25.626
12.5899
-5.75969
-19.1462
-20.0626
-14.3035
-9.02812
-5.43336
-3.07741
-1.55671
-0.589824
0.0155098
0.382459
0.590431
0.685135
0.739505
0.714335
0.677437
0.629853
0.573605
0.514767
0.456464
0.400139
0.3449
0.29664
0.228619
0.308479
25.9871
24.8585
23.0338
19.2357
9.46523
-4.61553
-14.1624
-15.2167
-11.4931
-7.59144
-4.68632
-2.69036
-1.36958
-0.51643
0.023151
0.353075
0.542021
0.630413
0.681976
0.658719
0.628197
0.585064
0.533559
0.479667
0.425927
0.373622
0.321999
0.275863
0.211834
0.277293
20.7472
19.7905
17.9661
14.0458
6.45813
-3.77284
-9.94355
-10.968
-8.77604
-6.08212
-3.87508
-2.26955
-1.1691
-0.442229
0.0244329
0.313309
0.481091
0.563632
0.611223
0.588328
0.564032
0.526996
0.481953
0.434519
0.386725
0.339694
0.292765
0.249786
0.190513
0.239721
16.0488
15.2834
13.6792
9.99742
4.10504
-2.90942
-7.04015
-7.85477
-6.50981
-4.6805
-3.07622
-1.8471
-0.970771
-0.374956
0.0154207
0.261277
0.406535
0.479963
0.511838
0.505404
0.487302
0.457429
0.420582
0.380916
0.34024
0.299584
0.258357
0.219512
0.165952
0.198315
12.1884
11.5726
10.2059
6.95076
2.47721
-2.24149
-5.10594
-5.75936
-4.94554
-3.71379
-2.5488
-1.60167
-0.89482
-0.39562
-0.0585602
0.160592
0.295427
0.369512
0.403443
0.409639
0.39971
0.378991
0.35157
0.320665
0.288045
0.254674
0.220046
0.186268
0.13947
0.155523
9.27259
8.74342
7.53816
4.7422
1.34662
-1.88151
-3.82352
-4.30691
-3.80577
-2.96781
-2.12268
-1.40072
-0.83909
-0.427627
-0.140025
0.0537211
0.178444
0.25272
0.292203
0.306957
0.305953
0.294872
0.277207
0.255609
0.231686
0.206298
0.179048
0.151235
0.112309
0.113661
7.26831
6.75571
5.60397
3.22068
0.632065
-1.61285
-2.93316
-3.2834
-2.96983
-2.39542
-1.78506
-1.24153
-0.801995
-0.46828
-0.225742
-0.0558532
0.0589595
0.132592
0.176733
0.199583
0.208046
0.206878
0.199178
0.187214
0.17241
0.155534
0.136338
0.115365
0.085494
0.0747763
6.06328
5.50642
4.32093
2.28582
0.291195
-1.30983
-2.23948
-2.51377
-2.33401
-1.95228
-1.52193
-1.12132
-0.784302
-0.517777
-0.315644
-0.167612
-0.0620512
0.0108192
0.0593615
0.0899518
0.107699
0.116397
0.118686
0.116484
0.111042
0.103068
0.09252
0.0792486
0.0597117
0.0404856
5.50201
4.86169
3.61196
1.87963
0.315873
-0.885016
-1.60203
-1.86645
-1.80886
-1.5872
-1.30663
-1.02733
-0.779243
-0.572451
-0.407569
-0.280081
-0.18341
-0.111467
-0.05879
-0.0209092
0.00579391
0.024176
0.0363456
0.0438943
0.0479237
0.049122
0.0477397
0.043003
0.0351925
0.0118523
5.4042
4.6778
3.41279
1.96062
0.696886
-0.286673
-0.929746
-1.25024
-1.32636
-1.2563
-1.11335
-0.945113
-0.778989
-0.628584
-0.499498
-0.392116
-0.30442
-0.233768
-0.177368
-0.132641
-0.0973429
-0.0695418
-0.0476921
-0.0305125
-0.0170277
-0.00652376
0.0016652
0.00621981
0.0115952
-0.0107179
5.57321
4.81597
3.65707
2.46305
1.38713
0.485374
-0.184536
-0.615339
-0.843922
-0.928971
-0.922285
-0.862758
-0.777221
-0.682819
-0.589607
-0.502778
-0.424619
-0.35585
-0.296267
-0.245183
-0.201707
-0.164831
-0.133593
-0.107021
-0.084247
-0.0645009
-0.0465373
-0.0321205
-0.0122188
-0.0276849
5.78657
5.13487
4.2157
3.24113
2.27133
1.37305
0.621122
0.0500095
-0.343453
-0.5887
-0.720723
-0.771778
-0.768671
-0.731827
-0.675909
-0.610907
-0.543347
-0.477343
-0.415313
-0.358501
-0.307391
-0.261926
-0.221741
-0.186207
-0.154537
-0.125937
-0.0984092
-0.0739265
-0.0389003
-0.0412053
5.82513
5.45341
4.82103
4.02691
3.13857
2.23713
1.40618
0.704196
0.156432
-0.240838
-0.506787
-0.666513
-0.745627
-0.767046
-0.749559
-0.707632
-0.651889
-0.589813
-0.52644
-0.464969
-0.407262
-0.354236
-0.306108
-0.26266
-0.223157
-0.186853
-0.151092
-0.117187
-0.0686989
-0.0539479
5.78677
5.62162
5.20079
4.55143
3.75223
2.88346
2.02603
1.25065
0.601621
0.0944385
-0.275985
-0.526416
-0.678863
-0.756064
-0.778627
-0.7637
-0.724732
-0.671792
-0.612087
-0.55053
-0.490282
-0.433221
-0.380221
-0.331549
-0.286702
-0.245064
-0.203797
-0.16351
-0.105297
-0.0739812
26.9553
25.8045
23.9796
20.1376
11.5194
-5.22009
-14.1058
-16.312
-11.6217
-7.57707
-4.7341
-2.7369
-1.39901
-0.529912
0.0231009
0.362574
0.557964
0.651885
0.679151
0.683179
0.648442
0.602832
0.55016
0.49456
0.439005
0.385091
0.331118
0.285571
0.206857
0.300397
25.2003
24.0413
22.0319
17.7603
9.58484
-4.99521
-12.7561
-14.7428
-10.8045
-7.11973
-4.45945
-2.58052
-1.31311
-0.486674
0.0397082
0.362814
0.548396
0.637072
0.661766
0.66516
0.632322
0.587851
0.536637
0.482594
0.428536
0.375902
0.323574
0.277194
0.209487
0.273043
22.3762
21.2684
19.3315
14.9967
7.16443
-3.72981
-11.1689
-12.3827
-9.43156
-6.38675
-4.05191
-2.36405
-1.20874
-0.447899
0.0396957
0.340581
0.514383
0.598228
0.621971
0.625596
0.596637
0.555704
0.508071
0.457581
0.406813
0.357095
0.307539
0.26259
0.19953
0.251713
18.9149
17.9187
16.0365
11.9843
5.16303
-3.19399
-8.92628
-9.87449
-7.86275
-5.50499
-3.56449
-2.11405
-1.09885
-0.419171
0.0216672
0.296842
0.458003
0.537886
0.562435
0.567595
0.544304
0.50876
0.466439
0.421157
0.375204
0.329784
0.28416
0.241911
0.183333
0.224483
15.3909
14.5844
12.9301
9.24763
3.67946
-2.70424
-6.78652
-7.61372
-6.32806
-4.59383
-3.0574
-1.86128
-0.998419
-0.406796
-0.0161489
0.232194
0.380961
0.458263
0.486195
0.494448
0.477786
0.449101
0.413611
0.374952
0.335131
0.295223
0.254611
0.216116
0.162921
0.191696
12.1858
11.5697
10.2025
6.9465
2.47198
-2.24962
-5.11351
-5.76537
-4.94913
-3.71557
-2.54948
-1.6017
-0.894536
-0.395208
-0.0581174
0.161022
0.295828
0.36988
0.403782
0.409955
0.4
0.379259
0.351817
0.320891
0.28825
0.254856
0.220203
0.186396
0.139559
0.155596
9.52694
9.05915
7.93937
5.14489
1.62817
-1.79697
-3.87703
-4.41694
-3.91169
-3.04573
-2.1721
-1.42782
-0.850554
-0.428859
-0.135266
0.0616949
0.187888
0.262381
0.301525
0.315229
0.313791
0.301984
0.283476
0.261059
0.236355
0.210242
0.182333
0.154047
0.114531
0.118361
7.5112
7.13139
6.16561
3.79528
1.0446
-1.44821
-2.96019
-3.39945
-3.09671
-2.49731
-1.85363
-1.28037
-0.818023
-0.468639
-0.216483
-0.0411777
0.0762726
0.150596
0.194299
0.215926
0.22305
0.220335
0.211017
0.197473
0.181156
0.162856
0.142317
0.120294
0.0890431
0.0820627
6.13724
5.78051
4.86381
2.84821
0.690841
-1.14267
-2.25317
-2.6154
-2.4508
-2.04816
-1.58585
-1.15482
-0.793394
-0.50994
-0.297109
-0.143072
-0.0348256
0.0384452
0.0859823
0.114674
0.130179
0.136474
0.136327
0.131754
0.124039
0.113895
0.101219
0.0861354
0.0640919
0.0485447
5.33992
4.94889
3.99924
2.27233
0.56589
-0.812622
-1.6583
-1.97896
-1.92206
-1.67388
-1.35915
-1.04812
-0.775226
-0.551289
-0.37553
-0.242316
-0.143593
-0.0720953
-0.0214125
0.0135531
0.0369555
0.0519207
0.0607148
0.0650139
0.0659389
0.0641426
0.0597221
0.0522081
0.0403535
0.0192712
5.01403
4.54944
3.53438
2.05341
0.684143
-0.397492
-1.09249
-1.41514
-1.45985
-1.34534
-1.15837
-0.953123
-0.759621
-0.59066
-0.450463
-0.337853
-0.24905
-0.180035
-0.126943
-0.0864431
-0.0557292
-0.0325424
-0.0151498
-0.00219973
0.0072761
0.0139021
0.0180445
0.0186885
0.0180728
-0.00478242
5.02759
4.48132
3.43723
2.1828
1.05546
0.143528
-0.496464
-0.867277
-1.02266
-1.03628
-0.968471
-0.861715
-0.742761
-0.626689
-0.521328
-0.429427
-0.351058
-0.285229
-0.230439
-0.185088
-0.147646
-0.116718
-0.0911227
-0.0698234
-0.0519887
-0.0369881
-0.024078
-0.0147611
-0.00304574
-0.0232369
5.2283
4.64232
3.6709
2.62745
1.65684
0.814337
0.155431
-0.303462
-0.583644
-0.727845
-0.777799
-0.767427
-0.721844
-0.658283
-0.58786
-0.517178
-0.449909
-0.387972
-0.332162
-0.282588
-0.238975
-0.200795
-0.167432
-0.138162
-0.112275
-0.0891127
-0.067407
-0.0490616
-0.0240437
-0.0365093
5.43835
4.92525