/*--------------------------------*- C++ -*----------------------------------*\
  =========                 |
  \\      /  F ield         | OpenFOAM: The Open Source CFD Toolbox
   \\    /   O peration     | Website:  https://openfoam.org
    \\  /    A nd           | Version:  7
     \\/     M anipulation  |
\*---------------------------------------------------------------------------*/
FoamFile
{
    version     2.0;
    format      ascii;
    class       surfaceScalarField;
    location    "700";
    object      phi;
}
// * * * * * * * * * * * * * * * * * * * * * * * * * * * * * * * * * * * * * //

dimensions      [0 3 -1 0 0 0 0];

internalField   nonuniform List<scalar> 
81175
(
525.054
8.76052
8.72126
113.18
32.2458
32.1276
115.168
115.324
117.009
93.5163
9.84382
9.81952
-14.6345
3.03793
3.45972
1.99902
2.18304
1.71138
2.24336
2.29726
-0.639592
-0.757028
-0.900643
-5.8331
-1.10831
-1.17619
8.11761
-14.0438
15.6829
-0.809847
-0.829278
-19.7116
20.7999
-0.541204
-0.547103
-23.4683
24.1931
-0.361317
-0.363464
-25.9898
26.4848
-0.247017
-0.247986
-27.7303
28.079
-0.174071
-0.17461
-28.9695
29.2226
-0.126376
-0.12673
-29.8778
30.0667
-0.0942969
-0.0945578
-30.5646
123.414
-0.553353
-0.554965
-30.5764
-30.5764
-30.5881
504.572
-3.16281
-3.17308
-124.419
-124.56
-124.56
-124.697
509.722
-2.57081
-2.57987
513.934
-2.1015
-2.10961
517.416
-1.73764
-1.74498
520.328
-1.45242
-1.45912
522.786
-1.22593
-1.23209
524.878
-1.0435
-1.04918
526.673
-0.894548
-0.8998
528.209
-0.765776
-0.770641
529.547
-0.666479
-0.670995
-0.523203
-0.527445
529.709
14.4434
7.59941
118.567
50.6907
27.1086
122.254
120.051
123.284
-17.9314
104.563
23.6196
8.31538
-11.0158
-19.6579
13.0944
2.57159
3.89411
3.58307
3.63156
3.89909
-2.37811
3.78724
-5.49331
-1.02708
5.11126
-12.0628
4.19648
-1.02996
-4.94946
13.8457
2.8504
-18.0892
19.2282
-3.29892
-0.690479
1.91539
-22.0574
22.8409
-2.23523
-0.463739
1.30765
-24.8212
25.377
-1.54558
-0.317865
0.913377
-26.7951
27.1969
-1.09208
-0.223107
0.6546
-28.2313
28.5272
-0.789845
-0.160597
0.481263
-29.2957
29.5177
-0.584733
-0.118495
0.362385
-30.0997
30.2695
-0.442701
-0.0895066
-30.7294
1.07609
124.052
-1.55359
-0.52658
-30.7838
-30.7404
-30.7944
506.725
-5.85262
-2.99892
-125.004
-125.388
-125.135
-125.51
511.403
-4.7955
-2.45331
515.274
-3.9549
-2.01714
518.504
-3.29161
-1.67617
521.225
-2.76642
-1.40705
523.537
-2.34611
-1.19206
525.517
-2.00523
-1.01803
527.222
-1.72426
-0.875283
528.692
-1.48389
-0.751675
529.962
-1.28025
-0.656834
-1.05258
-0.51408
535.602
16.5544
6.02753
126.056
54.5314
20.0228
129.141
126.848
129.694
-26.3317
119.549
26.9678
5.87066
-14.8847
-27.0658
25.359
14.7919
1.79969
-0.186574
0.8768
-0.746891
0.0578992
-19.5467
8.9118
-8.70844
-1.01883
20.3622
5.70737
-22.123
-0.649091
22.6413
-5.5766
3.87285
-24.0897
24.5359
-3.86731
-0.451779
2.74967
-25.7676
26.1427
-2.79962
-0.325119
1.99426
-27.1668
27.4758
-2.06549
-0.237837
1.46835
-28.3134
28.5644
-1.5431
-0.176331
1.09771
-29.2417
29.444
-1.16743
-0.132585
0.833872
-29.9888
30.1514
-0.895338
-0.101201
0.644025
-30.59
30.7214
-0.696929
-0.0784777
-31.0922
1.95444
125.352
-2.29044
-0.469525
-31.1723
-31.1013
-31.1809
510.544
-7.78276
-2.69765
-126.161
-126.691
-126.272
-126.792
514.437
-6.45801
-2.23066
517.724
-5.38934
-1.85235
520.514
-4.53026
-1.5522
522.899
-3.83917
-1.31224
524.951
-3.27907
-1.11855
526.726
-2.82002
-0.960391
528.269
-2.43787
-0.829693
529.611
-2.10983
-0.715986
530.784
-1.82491
-0.628366
-1.52443
-0.494486
540.839
16.2543
4.58655
530.973
50.1713
14.2263
129.682
97.4214
28.5549
-26.4715
-35.9781
-25.599
-34.5275
133.614
130.444
133.834
-53.7852
131.703
44.3985
7.36516
-23.4081
-34.0449
36.1842
19.4485
1.82057
4.65854
-4.72362
0.0653045
12.0777
-29.0632
28.483
-10.5165
-0.980909
7.00741
-27.831
-0.530205
27.7579
-6.40407
4.80239
-27.7927
27.8631
-4.50699
-0.365867
3.56043
-28.1735
28.299
-3.41062
-0.275269
2.72603
-28.7053
28.8466
-2.65439
-0.212909
2.11198
-29.2761
29.4176
-2.08725
-0.166197
1.64592
-29.8322
29.9648
-1.64814
-0.130326
1.29021
-30.3445
30.4637
-1.30665
-0.102705
1.01876
-30.8002
30.9045
-1.0416
-0.0814716
0.812017
-31.1967
31.2868
-0.83695
-0.0651803
-31.5565
2.53611
127.002
-2.72219
-0.399512
-31.6447
-31.5636
-31.6513
515.329
-8.9121
-2.33291
-127.634
-128.215
-127.723
-128.294
518.328
-7.50247
-1.95498
520.929
-6.34588
-1.64414
523.189
-5.39713
-1.39289
525.158
-4.61972
-1.18858
526.88
-3.98005
-1.02144
528.393
-3.44916
-0.883413
529.725
-3.00231
-0.768284
530.899
-2.61607
-0.667415
531.939
-2.27605
-0.589261
-1.92238
-0.46849
544.531
14.5775
3.37013
541.905
42.9357
9.8616
136.192
75.2142
17.6282
136.955
136.318
137.02
-36.3522
138.395
30.3606
3.78804
-49.129
149.499
37.6518
4.86185
-142.883
-10.893
-39.625
40.9097
0.582555
9.02587
-0.379525
-43.0194
42.4286
-0.0814228
1.05169
6.91279
-37.9077
141.262
-16.071
-2.41548
7.20585
6.77256
7.10634
-37.9742
-37.4488
-37.4419
6.3747
-134.034
129.482
-17.6594
-2.40484
6.29691
6.00837
5.93663
4.71257
-126.669
125.088
-14.762
-1.88957
4.4433
4.67048
4.40621
3.62257
-124.15
123.674
-12.1306
-1.50291
3.45593
3.59745
3.43355
2.90221
-123.462
123.446
-10.0956
-1.22644
2.78294
2.88536
2.76765
2.36308
-123.574
123.8
-8.46008
-1.01317
2.27209
2.35094
2.26095
1.93416
-124.11
124.469
-7.09194
-0.839594
1.86055
1.9254
1.85245
1.58298
-124.876
125.301
-5.92971
-0.695107
1.52317
1.57669
1.51732
1.2952
-125.75
126.196
-4.94582
-0.574826
1.24681
1.2907
1.24259
1.06089
-126.65
127.086
-4.12055
-0.475482
1.02188
1.05766
1.01883
0.87145
-127.522
127.933
-3.43664
-0.39439
0.840738
0.869113
0.838489
2.82602
-128.341
128.728
-2.88314
-0.32944
520.453
-9.34969
-1.95916
-129.196
-129.766
-129.266
-129.829
522.607
-7.99005
-1.66569
524.532
-6.85012
-1.42071
526.252
-5.89877
-1.21856
527.787
-5.10386
-1.05096
529.158
-4.43905
-0.911746
530.384
-3.87987
-0.795331
531.483
-3.40391
-0.697254
532.466
-2.98925
-0.610662
533.354
-2.62068
-0.543262
-2.23598
-0.437573
546.761
12.2667
2.40265
547.612
35.2626
6.82188
553.614
57.9405
11.2722
568.579
76.1795
15.018
-25.518
-28.2814
-24.8425
-27.5209
148.054
78.4349
15.6115
-29.7811
-27.8387
-28.8908
-27.0473
146.177
147.83
146.028
-22.4629
150.387
18.3296
1.80042
-5.0001
-150.838
149.204
6.13385
0.500481
556.478
-11.3281
-3.7341
8.95717
11.0845
8.3665
10.5076
-145.873
-144.466
-145.67
-144.323
538.432
-24.2143
-5.80547
12.4558
12.0279
11.9536
11.6289
527.74
-28.0549
-5.98379
11.7146
10.9513
11.3793
10.6854
521.903
-27.8282
-5.57784
10.2523
9.58021
10.0202
9.39007
518.963
-26.0131
-5.01871
8.85291
8.29084
8.68187
8.14631
517.774
-23.642
-4.44531
7.61846
7.14058
7.48904
7.02859
517.718
-21.1404
-3.89911
6.52468
6.11559
6.42534
6.0292
518.391
-18.6814
-3.39367
5.56213
5.20991
5.48629
5.14373
519.523
-16.368
-2.93583
4.72038
4.41989
4.66281
4.36942
520.916
-14.251
-2.52918
3.99378
3.74078
3.95018
3.70231
522.431
-12.3595
-2.17515
3.375
3.16564
3.34195
3.13642
523.992
-10.6948
-1.86968
2.85625
2.67525
2.82947
2.64328
525.498
-9.24597
-1.60965
526.92
-8.0223
-1.38985
528.246
-6.97378
-1.20317
529.473
-6.07987
-1.04527
530.599
-5.31817
-0.911708
531.63
-4.67079
-0.799016
532.572
-4.11904
-0.703572
533.435
-3.64443
-0.622394
534.224
-3.22796
-0.550223
534.953
-2.85514
-0.493889
-2.46129
-0.404007
547.908
9.85499
1.67462
550.326
28.1602
4.68381
555.895
44.9454
7.42596
565.558
57.0812
9.43564
576.147
58.2576
9.58811
579.503
43.983
6.80389
-15.4452
-11.8339
-15.1761
-11.688
573.026
22.003
2.94207
-6.43534
-2.74729
-6.42621
-2.85949
560.465
1.7977
-0.563912
548.982
-10.3598
-2.3717
540.47
-16.4331
-3.10988
534.769
-18.8353
-3.29168
531.155
-19.1978
-3.20172
529.013
-18.5077
-2.99217
527.887
-17.2822
-2.73265
527.474
-15.8092
-2.45893
527.556
-14.2613
-2.18911
527.975
-12.7356
-1.93413
528.611
-11.295
-1.70041
529.374
-9.96758
-1.49007
530.206
-8.77347
-1.3049
531.051
-7.7224
-1.1442
531.882
-6.80127
-1.00439
532.686
-5.99949
-0.883605
533.451
-5.30356
-0.779531
534.173
-4.70306
-0.690373
534.853
-4.18503
-0.613953
535.493
-3.73543
-0.548423
536.093
-3.33884
-0.489883
536.665
-2.98248
-0.444173
-2.59918
-0.3699
548.347
7.63462
1.15165
551.235
22.058
3.21441
556.19
34.9846
5.00553
563.112
43.9486
6.21082
569.853
45.2073
6.30873
572.372
36.5962
4.86764
569.214
22.4422
2.71956
562.178
8.20197
0.631179
554.633
-2.08655
-0.727796
548.206
-8.50597
-1.50069
543.286
-12.0428
-1.87251
539.744
-13.6565
-1.99936
537.294
-14.0703
-1.98655
535.667
-13.7583
-1.897
534.665
-13.0397
-1.76737
534.124
-12.101
-1.61937
533.921
-11.0669
-1.46658
533.962
-10.0184
-1.31752
534.174
-9.0027
-1.17679
534.502
-8.05272
-1.04831
534.898
-7.18577
-0.932858
535.334
-6.40679
-0.829981
535.788
-5.71446
-0.739248
536.247
-5.10276
-0.659637
536.701
-4.56744
-0.59044
537.148
-4.10073
-0.530488
537.584
-3.69297
-0.478759
538.01
-3.33264
-0.432495
538.434
-3.00947
-0.396479
-2.6535
-0.336958
548.395
5.72761
0.786124
551.236
16.9993
2.2174
555.515
27.2568
3.44908
560.828
34.3768
4.25875
565.721
35.9396
4.37468
567.95
30.7654
3.60188
566.662
21.37
2.35983
562.675
11.1345
1.05449
557.76
2.761
0.0673861
553.067
-3.2148
-0.597811
549.087
-7.06443
-0.998725
545.913
-9.27319
-1.2095
543.497
-10.3588
-1.29516
541.705
-10.6637
-1.30206
540.414
-10.4884
-1.26034
539.518
-10.0152
-1.1904
538.931
-9.37356
-1.10567
538.579
-8.65161
-1.01506
538.407
-7.90639
-0.924177
538.368
-7.17739
-0.837058
538.426
-6.48761
-0.755813
538.552
-5.85119
-0.681485
538.726
-5.27349
-0.614469
538.932
-4.7542
-0.554569
539.16
-4.29381
-0.501774
539.403
-3.88889
-0.455601
539.66
-3.53386
-0.415607
539.928
-3.22114
-0.379992
540.215
-2.94404
-0.352472
-2.62946
-0.306448
548.245
4.14599
0.536924
550.814
12.8826
1.54768
554.482
21.1537
2.43535
558.796
27.0326
3.03021
562.739
28.8245
3.17168
564.937
25.8071
2.76082
564.801
19.4899
2.01555
562.694
12.0706
1.17103
559.59
5.40833
0.456958
556.262
0.196286
-0.0831566
553.151
-3.50018
-0.453428
550.482
-5.91873
-0.685441
548.259
-7.31992
-0.816122
546.48
-8.00906
-0.875593
545.081
-8.20185
-0.887045
544
-8.06708
-0.867284
543.181
-7.72663
-0.828173
542.575
-7.26703
-0.778033
542.139
-6.74779
-0.722543
541.838
-6.21098
-0.665796
541.643
-5.68236
-0.610325
541.53
-5.18054
-0.557848
541.481
-4.71505
-0.509291
541.481
-4.28946
-0.465
541.521
-3.90761
-0.425397
541.592
-3.5695
-0.39047
541.691
-3.27322
-0.360175
541.819
-3.01502
-0.333524
541.981
-2.79333
-0.313195
-2.53211
-0.279227
547.991
2.88621
0.369937
550.206
9.56447
1.10245
553.359
16.2286
1.77265
557.035
21.116
2.24032
560.492
22.9696
2.39806
562.787
21.3226
2.18958
563.433
17.1124
1.73152
562.58
11.7544
1.16932
560.752
6.58842
0.648082
558.487
2.24357
0.217619
556.159
-1.06641
-0.10584
553.963
-3.39021
-0.332408
552.02
-4.89766
-0.479781
550.352
-5.77333
-0.566949
548.949
-6.18877
-0.610433
547.788
-6.28291
-0.623162
546.838
-6.16214
-0.614972
546.07
-5.90528
-0.593181
545.454
-5.56898
-0.5631
544.966
-5.19424
-0.528696
544.583
-4.80718
-0.492581
544.288
-4.42782
-0.456765
544.063
-4.06772
-0.422487
543.896
-3.73279
-0.390431
543.779
-3.42893
-0.361295
543.704
-3.15865
-0.33539
543.667
-2.92326
-0.312929
543.668
-2.72252
-0.293635
543.716
-2.56218
-0.279184
-2.36497
-0.255796
547.703
1.9039
0.258675
549.56
6.8977
0.81016
552.301
12.1471
1.34058
555.575
16.1117
1.7301
558.789
17.8597
1.896
561.215
17.0942
1.80285
562.449
14.3605
1.51753
562.479
10.5907
1.13348
561.608
6.71308
0.746305
560.177
3.27178
0.402743
558.491
0.495517
0.124097
556.761
-1.57291
-0.0871424
555.107
-3.00554
-0.238073
553.593
-3.92014
-0.339612
552.246
-4.43862
-0.402762
551.068
-4.66814
-0.437067
550.052
-4.69544
-0.450386
549.183
-4.58744
-0.448933
548.446
-4.39402
-0.437485
547.823
-4.15218
-0.419753
547.301
-3.88625
-0.398322
546.864
-3.61545
-0.375301
546.5
-3.35163
-0.352106
546.198
-3.10173
-0.329638
545.951
-2.87257
-0.308767
545.75
-2.66826
-0.290038
545.594
-2.49277
-0.2738
545.48
-2.34866
-0.260422
545.42
-2.25175
-0.250578
-2.12843
-0.23637
547.405
1.15466
0.182909
548.948
4.73469
0.619848
551.393
8.63868
1.06355
554.436
11.6645
1.4049
557.544
13.1767
1.57512
560.133
12.9539
1.55087
561.82
11.3005
1.37306
562.509
8.79782
1.10412
562.354
6.05855
0.809579
561.596
3.49855
0.530499
560.465
1.33817
0.2891
559.146
-0.347583
0.0937637
557.772
-1.57608
-0.0561415
556.43
-2.41183
-0.165828
555.167
-2.93402
-0.242109
554.01
-3.21873
-0.291784
552.966
-3.33111
-0.320978
552.037
-3.32347
-0.334877
551.217
-3.2361
-0.337705
550.497
-3.0996
-0.332892
549.869
-2.93467
-0.322957
549.321
-2.75794
-0.310027
548.845
-2.58017
-0.295626
548.433
-2.40816
-0.280804
548.075
-2.2486
-0.266543
547.767
-2.10624
-0.253565
547.503
-1.98702
-0.242258
547.283
-1.89489
-0.233599
547.116
-1.85787
-0.227155
-1.81695
-0.220903
547.162
0.591537
0.126311
548.458
2.94028
0.498706
550.694
5.50789
0.895088
553.587
7.56282
1.20878
556.666
8.71309
1.38416
559.42
8.79441
1.40524
561.484
7.9385
1.2979
562.711
6.46634
1.10511
563.149
4.74589
0.874635
562.95
3.05611
0.641302
562.294
1.56726
0.42716
561.346
0.356737
0.243635
560.239
-0.564098
0.0943217
559.072
-1.22257
-0.0220236
557.91
-1.66266
-0.1091
556.794
-1.93142
-0.171522
555.749
-2.07173
-0.213975
554.786
-2.11957
-0.240758
553.909
-2.1035
-0.255607
553.116
-2.04574
-0.261694
552.405
-1.96177
-0.261479
551.768
-1.86417
-0.25709
551.2
-1.76132
-0.25013
550.692
-1.65893
-0.241773
550.239
-1.56246
-0.233079
549.834
-1.47628
-0.22493
549.472
-1.40723
-0.21766
549.148
-1.35844
-0.212856
548.867
-1.36814
-0.208663
-1.41146
-0.20931
547.011
0.198072
0.0729624
548.127
1.39099
0.433149
550.2
2.62593
0.809631
552.973
3.67736
1.1123
556.047
4.33951
1.29975
558.972
4.51034
1.35833
561.389
4.21876
1.30259
563.101
3.59185
1.16315
564.076
2.79381
0.97648
564.396
1.963
0.773221
564.193
1.19507
0.575419
563.61
0.542907
0.396706
562.778
0.0246407
0.243786
561.801
-0.364129
0.118419
560.758
-0.639523
0.0192933
559.706
-0.82228
-0.0564795
558.68
-0.933118
-0.112428
557.702
-0.990381
-0.152142
556.787
-1.00922
-0.178957
555.939
-1.00175
-0.195851
555.159
-0.976691
-0.205249
554.446
-0.941216
-0.209298
553.794
-0.900228
-0.209673
553.2
-0.857276
-0.207683
552.658
-0.815634
-0.204441
552.16
-0.778044
-0.200986
551.701
-0.749999
-0.197577
551.272
-0.73291
-0.196203
550.857
-0.760424
-0.193687
-0.861236
-0.200424
546.948
0.0328371
547.936
0.403197
549.78
0.781706
552.36
1.09738
555.381
1.31839
558.463
1.42798
561.253
1.42973
563.501
1.34304
565.099
1.19581
566.047
1.01555
566.417
0.825036
566.319
0.640792
565.87
0.47324
565.179
0.32764
564.333
0.205601
563.405
0.106367
562.444
0.0277896
561.486
-0.0329194
560.556
-0.0787012
559.667
-0.112397
558.826
-0.136506
558.038
-0.153282
557.303
-0.164589
556.617
-0.171952
555.978
-0.176661
555.38
-0.17995
554.813
-0.18217
554.265
-0.185528
553.691
-0.18613
-0.196298
529.76
7.60382
14.3651
118.679
27.1243
50.4852
120.068
122.268
123.264
-17.8068
104.753
8.28395
23.4482
-11.1981
-19.8982
2.68592
12.971
3.96479
3.76309
3.7561
3.95539
-2.64202
4.31924
-1.02355
-6.04323
5.38955
-12.2106
4.37407
-1.00592
-5.11157
13.9541
2.90336
-18.1286
19.2561
-0.680123
-3.35073
1.93332
-22.0675
22.8482
-0.459861
-2.25421
1.31482
-24.8239
25.379
-0.316253
-1.55363
0.916844
-26.796
27.1976
-0.222308
-1.09614
0.656614
-28.2316
28.5274
-0.160126
-0.792263
0.482619
-29.2958
29.5178
-0.118174
-0.586387
0.3634
-30.0997
30.2695
-0.0892641
-0.44395
-30.7294
1.07927
124.052
-0.525071
-1.55825
-30.7404
-30.7838
-30.7944
506.725
-2.98934
-5.87237
-125.004
-125.135
-125.388
-125.51
511.403
-2.44479
-4.81304
515.273
-2.00947
-3.97067
518.504
-1.6692
-3.30593
521.225
-1.40065
-2.77953
523.537
-1.18617
-2.35818
525.517
-1.01258
-2.01638
527.222
-0.87023
-1.73459
528.691
-0.746987
-1.49347
529.962
-0.652477
-1.28915
-0.509983
-1.06094
533.223
12.787
12.7597
122.433
43.7959
43.7259
125.152
125.137
127.211
-15.3001
-15.3207
112.384
20.3573
20.3131
-9.46979
-9.54601
-23.2279
19.9903
11.1391
11.1143
-9.90848
4.73894
4.72184
-5.9473
-5.97898
12.374
-17.083
3.65113
3.59432
-4.16589
-4.21684
18.2203
2.42642
2.39834
-21.0082
21.7873
-2.78797
-2.81589
1.65985
1.6479
-23.7968
24.3745
-1.93636
-1.94915
1.16198
1.15652
-25.8821
26.3184
-1.37435
-1.38054
0.830619
0.827739
-27.4608
27.7924
-0.993299
-0.996687
0.60658
0.604811
-28.6633
28.917
-0.731493
-0.733625
0.452516
0.451281
-29.5862
29.7822
-0.549141
-0.55065
0.344597
0.343651
-30.302
30.4554
-0.420223
-0.421388
-30.8816
1.02479
1.02181
124.641
-1.47777
-1.48214
-30.9324
-30.9324
-30.9814
508.717
-5.54824
-5.5667
-125.544
-125.903
-125.903
-126.239
512.976
-4.57019
-4.5867
516.54
-3.78788
-3.80282
519.54
-3.16592
-3.17954
522.085
-2.6703
-2.68282
524.262
-2.27161
-2.28317
526.136
-1.94686
-1.95757
527.756
-1.67812
-1.68806
529.162
-1.44786
-1.45709
530.364
-1.25115
-1.25973
-1.03379
-1.04187
537.802
14.9737
10.3709
128.095
48.1876
33.5372
130.515
129.641
131.646
-22.9272
-10.9121
123.404
23.7505
14.7796
-6.32613
-13.0475
51.7646
32.8812
27.6465
29.1547
28.4654
29.9224
-15.4151
-12.3084
-14.4792
-118.707
-7.27311
-5.60446
-6.67381
-4.93075
-7.25801
-6.7954
5.25735
9.44335
4.28304
0.955635
1.87958
-2.64731
3.70535
-2.63141
-1.262
-22.698
7.41038
3.51096
-7.22399
-4.06541
23.0661
2.30838
4.81478
-24.085
-2.69856
24.4257
-4.76531
1.63284
3.36048
-25.436
25.7615
-3.39182
-1.92696
1.19343
2.44119
-26.6921
26.9845
-2.50631
-1.42065
0.885693
1.80599
-27.8033
28.0562
-1.8819
-1.06273
0.664827
1.35242
-28.7551
28.9684
-1.42737
-0.803202
0.505012
1.0252
-29.5525
29.7295
-1.09355
-0.613606
0.388638
0.787524
-30.2116
30.3571
-0.847305
-0.474394
0.303259
0.613658
-30.7531
30.8728
-0.664989
-0.371623
-31.2193
0.91536
1.86248
125.849
-2.18799
-1.32778
-31.2948
-31.262
-31.3352
512.268
-7.40706
-5.03191
-126.622
-127.122
-126.93
-127.401
515.827
-6.17361
-4.18673
518.863
-5.1738
-3.50197
521.46
-4.36504
-2.95068
523.695
-3.71082
-2.50613
525.628
-3.17826
-2.14502
527.309
-2.74012
-1.84845
528.777
-2.37412
-1.60132
530.061
-2.0594
-1.38851
531.171
-1.78418
-1.20564
-1.49768
-1.00285
542.124
14.8945
8.03528
534.713
45.333
24.4916
131.878
85.632
46.8959
134.566
133.173
135.079
-23.3543
-31.1858
-21.3942
-28.022
-45.1127
-13.3862
38.4308
17.9507
33.2174
33.367
33.8355
33.5754
-5.83217
-19.098
-34.9414
36.9161
16.3204
6.63521
0.680817
-4.45626
-16.6449
11.9594
5.63695
2.82466
2.62314
6.58983
-13.4726
9.88159
-4.09475
-1.52718
9.97149
-30.4026
3.09952
29.6451
-8.75131
-3.56226
1.90036
6.05631
-28.6848
-2.23998
28.5659
-5.59783
1.3466
4.26481
-28.4995
28.5376
-4.04419
-1.60533
1.02394
3.21827
-28.7501
28.8409
-3.1049
-1.22808
0.799051
2.4955
-29.1583
29.272
-2.44516
-0.963135
0.628987
1.95632
-29.6265
29.7456
-1.94268
-0.761751
0.497017
1.54083
-30.1006
30.2157
-1.54844
-0.604543
0.394309
1.21897
-30.5497
30.6556
-1.23777
-0.481443
0.314571
0.970016
-30.9577
31.0522
-0.993713
-0.385336
0.252799
0.778211
-31.3187
31.4015
-0.803245
-0.310576
-31.6559
0.780121
2.42792
127.396
-2.61258
-1.13565
-31.7398
-31.6894
-31.7712
516.754
-8.51686
-4.3757
-128.006
-128.559
-128.255
-128.781
519.508
-7.19571
-3.68668
521.917
-6.10769
-3.11908
524.024
-5.21057
-2.65484
525.872
-4.47211
-2.27467
527.496
-3.86226
-1.96192
528.93
-3.35449
-1.70237
530.197
-2.92588
-1.48423
531.321
-2.55489
-1.29517
532.305
-2.22624
-1.13177
-1.88915
-0.948853
545.149
13.5038
5.99862
543.366
39.5189
17.4595
136.564
68.1758
30.388
137.207
136.772
137.519
-32.1995
138.596
27.481
9.80485
-7.11812
-42.4397
-9.02475
148.537
33.4597
12.1822
-142.715
-9.1383
-1.94731
-155.167
25.287
9.26029
-7.79117
-8.67844
-7.3289
-1.76527
-1.77526
-1.4682
40.8021
40.4037
39.7529
39.5537
-0.943577
-0.242359
-41.412
40.9619
0.327658
1.30834
5.54643
4.22414
-149.515
141.381
-12.7833
-5.27154
5.89218
5.09175
5.43513
5.47962
-134.971
4.42508
130.785
-15.2069
-5.82879
5.18314
5.19852
4.93593
4.2171
3.56338
-128.082
126.485
-13.2088
-4.87148
3.99519
4.05227
3.84915
3.31347
2.86607
-125.49
124.933
-11.0829
-3.98927
3.16821
3.20878
3.07324
2.6845
2.35174
-124.64
124.544
-9.33258
-3.30604
2.57872
2.60972
2.5104
2.20449
1.9509
-124.591
124.739
-7.88489
-2.76245
2.12217
2.15039
2.07198
1.81779
1.62277
-124.973
125.258
-6.656
-2.31236
1.75047
1.77803
1.7136
1.49802
1.34819
-125.597
125.957
-5.60101
-1.93223
1.44273
1.46894
1.41579
1.23337
1.11844
-126.347
126.736
-4.69914
-1.61135
1.18819
1.21219
1.16856
1.01587
0.927761
-127.14
127.531
-3.9357
-1.34286
0.979099
1.00043
0.964777
0.838569
0.771149
-127.925
128.298
-3.2979
-1.12087
0.809399
0.827242
0.798854
2.71773
-128.674
0.643439
129.032
-2.77854
-0.940498
521.602
-8.96854
-3.69249
-129.487
-130.035
-129.684
-130.21
523.583
-7.68746
-3.15573
525.369
-6.60917
-2.70466
526.974
-5.70579
-2.3289
528.415
-4.94827
-2.01564
529.708
-4.31279
-1.75417
530.87
-3.77688
-1.53464
531.915
-3.31966
-1.3484
532.856
-2.92094
-1.18589
533.696
-2.56445
-1.0447
-2.19785
-0.884542
547.035
11.4626
4.32881
548.245
32.8609
12.2701
554.149
53.5606
19.983
567.777
69.7303
26.0074
-23.2759
-25.6997
-21.6594
-23.7131
147.28
71.59
26.8403
-26.8554
-25.1028
-24.8103
-23.2078
145.641
146.677
145.337
-20.4213
-3.44117
149.39
17.0132
4.73889
-5.30187
-1.0166
-149.673
148.326
6.16087
1.50426
557.341
-8.29071
-5.04018
7.15622
9.29978
5.99498
8.00731
-145.347
-144.126
-144.847
-143.884
540.765
-20.8203
-9.24602
10.829
10.6496
9.68971
9.66934
530.496
-25.1077
-10.1273
10.5524
9.95899
9.73583
9.27242
524.632
-25.41
-9.72127
9.41433
8.84228
8.82774
8.33316
521.508
-24.0429
-8.90856
8.21825
7.72469
7.77721
7.33633
520.101
-22.0369
-7.99815
7.12584
6.69569
6.78222
6.39371
519.8
-19.8279
-7.09105
6.1423
5.76806
5.87677
5.53359
520.231
-17.6214
-6.22846
5.26558
4.93998
5.06015
4.75895
521.133
-15.5145
-5.43192
4.49167
4.21123
4.33363
4.07211
522.317
-13.5671
-4.71364
3.81795
3.57979
3.69677
3.47306
523.646
-11.8128
-4.07935
3.24005
3.0419
3.14707
2.95972
525.047
-10.2607
-3.52335
2.75357
2.57902
2.67895
2.50165
526.413
-8.89586
-3.04887
527.719
-7.73829
-2.64421
528.947
-6.74271
-2.29776
530.089
-5.89105
-2.00281
531.145
-5.16313
-1.75215
532.116
-4.54287
-1.53976
533.008
-4.01312
-1.3593
533.827
-3.5566
-1.20484
534.581
-3.15579
-1.06926
535.269
-2.79498
-0.951039
-2.41975
-0.814674
548.004
9.2767
3.04157
550.54
26.4775
8.53135
555.996
42.1046
13.4259
565.037
53.2331
16.8915
574.792
54.3029
17.1201
577.86
41.4762
12.3995
-14.4705
-11.175
-13.8095
-10.6851
572.138
21.546
5.85024
-6.35577
-2.94409
-6.30433
-3.12802
560.73
2.91328
-0.360181
550.034
-8.71151
-3.7843
541.889
-14.757
-5.31594
536.307
-17.3172
-5.80243
532.685
-17.8754
-5.74709
530.474
-17.376
-5.44126
529.251
-16.318
-5.0195
528.726
-15.0026
-4.55292
528.692
-13.589
-4.0812
528.997
-12.1787
-3.62778
529.527
-10.8357
-3.20677
530.191
-9.5909
-2.8238
530.935
-8.46248
-2.48267
531.702
-7.46482
-2.18409
532.465
-6.58753
-1.92332
533.209
-5.82154
-1.69682
533.922
-5.15492
-1.50082
534.6
-4.57846
-1.33229
535.24
-4.08035
-1.18748
535.845
-3.64743
-1.06259
536.418
-3.26555
-0.952551
536.956
-2.92056
-0.856542
-2.55558
-0.743567
548.367
7.22103
2.1073
551.262
20.883
5.91318
556.102
33.0822
9.18782
562.712
41.4826
11.3517
569.089
42.6921
11.5426
571.499
34.878
9.05566
568.677
21.8133
5.27409
562.19
8.52607
1.50495
555.101
-1.30689
-1.04298
548.956
-7.55989
-2.55325
544.179
-11.0929
-3.31963
540.682
-12.7607
-3.61685
538.232
-13.2701
-3.64217
536.581
-13.0526
-3.51171
535.534
-12.4266
-3.29587
534.938
-11.5743
-3.03821
534.676
-10.6181
-2.76588
534.657
-9.63823
-2.49612
534.811
-8.68214
-2.23887
535.083
-7.78262
-2.00087
535.429
-6.95777
-1.78553
535.819
-6.21411
-1.59292
536.231
-5.55128
-1.42223
536.653
-4.96427
-1.27188
537.074
-4.44963
-1.14079
537.491
-4.00036
-1.027
537.901
-3.60746
-0.928296
538.304
-3.26045
-0.841311
538.701
-2.94761
-0.76574
-2.60905
-0.674753
548.38
5.44188
1.4492
551.188
16.1749
4.11759
555.38
25.9408
6.39867
560.514
32.7129
7.89473
565.217
34.2353
8.12791
567.41
29.4982
6.78889
566.286
20.7406
4.55644
562.596
11.1035
2.16711
557.95
3.09237
0.313673
553.46
-2.69699
-0.970054
549.6
-6.47321
-1.75837
546.506
-8.68467
-2.19193
544.116
-9.79086
-2.38412
542.329
-10.1466
-2.42097
541.027
-10.0245
-2.36068
540.11
-9.60528
-2.2426
539.495
-9.01534
-2.09295
539.112
-8.34096
-1.92921
538.907
-7.63852
-1.76271
538.835
-6.94712
-1.60134
538.861
-6.28972
-1.44965
538.957
-5.68112
-1.31018
539.102
-5.1272
-1.18385
539.282
-4.62821
-1.07053
539.486
-4.18514
-0.970368
539.708
-3.79507
-0.882638
539.944
-3.45287
-0.806291
540.195
-3.15183
-0.739327
540.46
-2.88377
-0.681851
-2.58521
-0.610863
548.22
3.9502
0.995047
550.742
12.3048
2.8962
554.343
20.221
4.5542
558.547
25.8613
5.6772
562.381
27.6164
5.95691
564.556
24.8425
5.24135
564.516
18.9103
3.88652
562.576
11.8867
2.32718
559.647
5.49776
0.980866
556.457
0.462351
-0.0524353
553.455
-3.15136
-0.773744
550.845
-5.5245
-1.23519
548.667
-6.9277
-1.50195
546.91
-7.63389
-1.63075
545.518
-7.85408
-1.66539
544.435
-7.75133
-1.638
543.607
-7.44405
-1.57147
542.986
-7.01666
-1.482
542.534
-6.52758
-1.38078
542.215
-6.01816
-1.27588
542.001
-5.51389
-1.17235
541.869
-5.0335
-1.07382
541.802
-4.58672
-0.982218
541.784
-4.17743
-0.898362
541.807
-3.80971
-0.823184
541.862
-3.48391
-0.756803
541.946
-3.19837
-0.698997
542.06
-2.95009
-0.648879
542.206
-2.736
-0.606909
-2.48901
-0.553671
547.962
2.75488
0.687585
550.139
9.15787
2.07245
553.237
15.5582
3.33768
556.836
20.2717
4.23136
560.224
22.0853
4.54132
562.501
20.5762
4.17885
563.196
16.6064
3.34022
562.44
11.5146
2.29727
560.724
6.55226
1.30894
558.569
2.34854
0.486446
556.315
-0.862158
-0.140278
554.184
-3.14242
-0.584241
552.285
-4.63098
-0.877249
550.645
-5.50635
-1.05428
549.26
-5.93267
-1.14636
548.107
-6.04395
-1.1781
547.16
-5.94328
-1.16838
546.389
-5.70739
-1.13135
545.767
-5.39168
-1.07738
545.271
-5.03634
-1.01424
544.878
-4.66707
-0.947066
544.572
-4.30376
-0.87993
544.336
-3.95797
-0.81532
544.158
-3.63573
-0.754659
544.03
-3.34306
-0.699376
543.943
-3.08266
-0.65017
543.895
-2.85596
-0.607392
543.886
-2.66333
-0.571056
543.922
-2.50907
-0.541968
-2.32398
-0.504206
547.683
1.81817
0.481316
549.506
6.61384
1.53054
552.2
11.6658
2.53972
555.414
15.4999
3.28765
558.575
17.2079
3.61221
560.981
16.5186
3.45492
562.239
13.9354
2.93021
562.333
10.341
2.21336
561.533
6.62038
1.47813
560.172
3.29091
0.820781
558.557
0.594442
0.282908
556.881
-1.42507
-0.128459
555.269
-2.83196
-0.425112
553.787
-3.73684
-0.626904
552.462
-4.25607
-0.754368
551.299
-4.49283
-0.825611
550.292
-4.53107
-0.85567
549.428
-4.43581
-0.856513
548.692
-4.25572
-0.837415
548.069
-4.027
-0.805605
547.543
-3.77353
-0.76615
547.101
-3.51425
-0.723231
546.732
-3.26093
-0.679655
546.424
-3.02053
-0.637234
546.17
-2.79987
-0.597713
545.963
-2.60317
-0.562192
545.799
-2.4344
-0.531396
545.678
-2.2966
-0.50606
545.609
-2.20426
-0.487317
-2.09062
-0.462886
547.391
1.10085
0.339978
548.907
4.54091
1.17679
551.305
8.3045
2.0271
554.296
11.2303
2.68322
557.358
12.706
3.01529
559.923
12.5222
2.98206
561.616
10.9605
2.6544
562.34
8.57222
2.14957
562.24
5.94026
1.58959
561.538
3.46805
1.05498
560.46
1.37254
0.589351
559.188
-0.269605
0.21009
557.854
-1.4717
-0.0828275
556.544
-2.29376
-0.29859
555.307
-2.81112
-0.449833
554.169
-3.09687
-0.549412
553.139
-3.21395
-0.609015
552.22
-3.21314
-0.638603
551.407
-3.13365
-0.646355
550.691
-3.00536
-0.638934
550.065
-2.84855
-0.621255
549.518
-2.67957
-0.597498
549.041
-2.50902
-0.570657
548.626
-2.34369
-0.542818
548.266
-2.19019
-0.515929
547.954
-2.05333
-0.491384
547.686
-1.939
-0.470124
547.461
-1.85138
-0.453424
547.289
-1.81761
-0.442633
-1.78356
-0.429611
547.153
0.561407
0.233419
548.426
2.81564
0.951382
550.623
5.28817
1.71465
553.469
7.27428
2.31863
556.504
8.3948
2.66075
559.228
8.49236
2.71072
561.286
7.68736
2.51338
562.528
6.28449
2.14996
562.999
4.63384
1.71031
562.841
3.00492
1.26227
562.228
1.56391
0.848844
561.322
0.387858
0.492804
560.253
-0.510174
0.201889
559.118
-1.15501
-0.0257252
557.982
-1.5882
-0.196811
556.889
-1.85476
-0.320074
555.861
-1.996
-0.40446
554.912
-2.0467
-0.458241
554.046
-2.03462
-0.48864
553.263
-1.9814
-0.501819
552.557
-1.90216
-0.502563
551.925
-1.80922
-0.495035
551.359
-1.71084
-0.482369
550.853
-1.61265
-0.466876
550.4
-1.52008
-0.450652
549.995
-1.43745
-0.435332
549.632
-1.37163
-0.421956
549.305
-1.32558
-0.412149
549.024
-1.33754
-0.407135
-1.38425
-0.40387
547.004
0.185481
0.136118
548.101
1.32656
0.825948
550.136
2.51084
1.55116
552.864
3.52333
2.13541
555.892
4.16514
2.50183
558.781
4.3379
2.62349
561.18
4.06652
2.52482
562.892
3.47162
2.26334
563.886
2.70898
1.9079
564.234
1.91157
1.51787
564.066
1.17198
1.13613
563.519
0.541872
0.789536
562.721
0.0395945
0.491721
561.776
-0.33838
0.246647
560.762
-0.607107
0.0521747
559.734
-0.786272
-0.0970246
558.729
-0.895701
-0.207634
557.77
-0.953038
-0.286532
556.87
-0.972905
-0.340164
556.034
-0.967028
-0.374309
555.264
-0.943882
-0.393695
554.558
-0.910444
-0.402517
553.913
-0.871508
-0.404064
553.324
-0.830557
-0.400893
552.786
-0.790826
-0.39525
552.291
-0.754947
-0.388997
551.834
-0.728642
-0.383265
551.405
-0.712315
-0.379818
550.994
-0.742023
-0.379077
-0.841035
-0.384395
546.941
0.0639323
547.912
0.758753
549.724
1.48099
552.258
2.08634
555.229
2.51229
558.266
2.72865
561.022
2.74021
563.255
2.58226
564.853
2.30681
565.814
1.96624
566.207
1.60403
566.137
1.25198
565.72
0.930407
565.059
0.649872
564.244
0.413855
563.343
0.221236
562.407
0.0681384
561.471
-0.0506159
560.56
-0.140566
559.688
-0.207108
558.863
-0.255026
558.088
-0.288648
557.363
-0.311584
556.687
-0.326771
556.057
-0.336776
555.465
-0.343812
554.904
-0.349153
554.361
-0.355269
553.793
-0.359954
-0.373514
535.567
6.02664
16.5141
126.028
20.0379
54.4024
126.812
129.109
129.662
-26.1882
119.459
5.86231
26.8955
-14.8471
-27.0337
25.3269
1.77025
14.7836
0.302127
1.22454
-0.0164737
-1.51007
-19.7365
9.07468
-1.04398
-8.81239
20.5182
5.76719
-22.2188
-0.651601
22.7215
-5.61822
3.90316
-24.1314
24.5688
-0.449794
-3.89071
2.76516
-25.7833
26.1549
-0.323628
-2.81312
2.0026
-27.1726
27.4803
-0.236975
-2.07342
1.4733
-28.3155
28.5661
-0.17581
-1.5481
1.10098
-29.2425
29.4446
-0.132237
-1.17088
0.836257
-29.9891
30.1517
-0.100944
-0.897908
0.645891
-30.5901
30.7214
-0.0782739
-0.698969
-31.0923
1.96045
125.352
-0.468222
-2.29765
-31.1013
-31.1723
-31.1809
510.543
-2.68928