/*--------------------------------*- C++ -*----------------------------------*\
  =========                 |
  \\      /  F ield         | OpenFOAM: The Open Source CFD Toolbox
   \\    /   O peration     | Website:  https://openfoam.org
    \\  /    A nd           | Version:  7
     \\/     M anipulation  |
\*---------------------------------------------------------------------------*/
FoamFile
{
    version     2.0;
    format      ascii;
    class       volVectorField;
    location    "700";
    object      U;
}
// * * * * * * * * * * * * * * * * * * * * * * * * * * * * * * * * * * * * * //

dimensions      [0 1 -1 0 0 0 0];

internalField   nonuniform List<vector> 
27370
(
(13.8846 0.0862896 0.0857578)
(13.0647 0.333597 0.332428)
(11.0084 0.373451 0.364863)
(5.10007 0.518522 0.484043)
(-0.739821 -0.0927715 -0.114364)
(2.87383 -0.169266 -0.179053)
(6.10502 -0.125683 -0.128706)
(8.30824 -0.0841107 -0.0850384)
(9.76836 -0.0560319 -0.056367)
(10.7514 -0.038226 -0.0383763)
(11.4327 -0.0268927 -0.0269759)
(11.9197 -0.0194993 -0.0195538)
(12.278 -0.0145391 -0.0145792)
(12.5838 -0.0214848 -0.021547)
(12.8428 -0.0315521 -0.0316526)
(12.9902 -0.025494 -0.0255822)
(13.108 -0.0207544 -0.0208332)
(13.2053 -0.0171018 -0.017173)
(13.2863 -0.0142588 -0.0143238)
(13.3544 -0.0120083 -0.0120679)
(13.4122 -0.0102003 -0.0102552)
(13.4615 -0.00873159 -0.0087824)
(13.5044 -0.00746102 -0.00750807)
(13.5386 -0.00649732 -0.00654096)
(13.5793 -0.00503202 -0.00507302)
(13.8902 0.22873 0.0749239)
(13.2562 0.845351 0.278206)
(11.6605 1.60233 0.313587)
(7.24566 3.7508 0.411805)
(1.55296 -1.39578 -0.151499)
(5.33099 -1.409 -0.157997)
(7.65427 -0.953936 -0.10724)
(9.20226 -0.643512 -0.0719923)
(10.2853 -0.441701 -0.0492429)
(11.0608 -0.31004 -0.034502)
(11.6264 -0.223047 -0.0248)
(12.0466 -0.164445 -0.018278)
(12.3647 -0.12411 -0.0137974)
(12.6541 -0.102136 -0.0204241)
(12.9051 -0.0898439 -0.0298665)
(13.0382 -0.0731235 -0.0242943)
(13.1461 -0.0598989 -0.0199003)
(13.2359 -0.0495771 -0.0164826)
(13.3114 -0.0414845 -0.0138035)
(13.3753 -0.035046 -0.0116697)
(13.4298 -0.0298501 -0.00994653)
(13.4766 -0.0256013 -0.00853975)
(13.5174 -0.0219547 -0.00732232)
(13.5503 -0.0189849 -0.0063948)
(13.5893 -0.0152679 -0.00495678)
(13.9145 0.303938 0.059921)
(13.5043 1.03086 0.202792)
(12.6372 2.053 0.221352)
(10.763 4.5458 0.263697)
(0.722614 -0.009343 0.0529472)
(8.18379 -2.6617 -0.150873)
(9.16655 -1.72726 -0.0998874)
(9.96022 -1.19328 -0.0700208)
(10.633 -0.856108 -0.0503485)
(11.1924 -0.626149 -0.0367773)
(11.6499 -0.464345 -0.0272345)
(12.0199 -0.349141 -0.0204577)
(12.3176 -0.266422 -0.0156021)
(12.5573 -0.206537 -0.012093)
(12.7968 -0.164484 -0.0181947)
(13.0148 -0.134869 -0.0267935)
(13.1243 -0.111035 -0.0220469)
(13.2152 -0.0919784 -0.0182478)
(13.2923 -0.0768183 -0.0152469)
(13.358 -0.0647576 -0.0128626)
(13.4144 -0.0550542 -0.010943)
(13.4631 -0.0471493 -0.0093787)
(13.5052 -0.0406192 -0.00809182)
(13.5424 -0.0350262 -0.00697274)
(13.5726 -0.0302187 -0.00611637)
(13.6087 -0.0250595 -0.00476628)
(13.9542 0.317112 0.0457771)
(13.7146 1.01793 0.143521)
(13.4643 2.06604 0.295706)
(13.1924 3.66895 0.280227)
(14.1388 6.41855 0.257018)
(11.5291 -5.6119 -0.186058)
(11.6508 -3.27483 -0.132897)
(11.3486 -2.00253 -0.0794209)
(11.393 -1.42336 -0.0563855)
(11.5646 -1.07131 -0.042559)
(11.7864 -0.827668 -0.0329006)
(12.0206 -0.646158 -0.0256599)
(12.2467 -0.506991 -0.0201075)
(12.4539 -0.399703 -0.0158359)
(12.6375 -0.3171 -0.0125545)
(12.797 -0.253779 -0.0100407)
(12.9765 -0.203323 -0.0154652)
(13.1507 -0.163982 -0.023097)
(13.2337 -0.136949 -0.0192785)
(13.3048 -0.114971 -0.0161682)
(13.3667 -0.0971258 -0.0136638)
(13.4205 -0.0826691 -0.0116385)
(13.4675 -0.0708649 -0.00998495)
(13.5087 -0.0611297 -0.00862162)
(13.5449 -0.0529991 -0.00748927)
(13.5772 -0.0459946 -0.00649735)
(13.6038 -0.0398607 -0.00573409)
(13.6361 -0.0334876 -0.00451533)
(13.9814 0.295963 0.0336843)
(13.8828 0.894336 0.0992878)
(13.8434 1.63428 0.178953)
(13.946 2.52032 0.144738)
(14.8118 3.23103 0.187767)
(16.4343 2.99351 0.0909869)
(17.2911 0.285923 0.00908916)
(14.8057 -1.5621 -0.0947739)
(13.3992 -1.54429 -0.0918027)
(12.8684 -1.2438 -0.0733533)
(12.6812 -1.00255 -0.058646)
(12.6374 -0.822148 -0.0478115)
(12.6629 -0.68053 -0.039437)
(12.7256 -0.564314 -0.0326304)
(12.8083 -0.46723 -0.0269768)
(12.8993 -0.386233 -0.0222791)
(12.9913 -0.319225 -0.0184074)
(13.0794 -0.264266 -0.0152535)
(13.1626 -0.22019 -0.0127144)
(13.2946 -0.178303 -0.0193339)
(13.3528 -0.151181 -0.0163895)
(13.4047 -0.128715 -0.0139463)
(13.4513 -0.110108 -0.0119373)
(13.4928 -0.0947365 -0.0102798)
(13.5299 -0.0819764 -0.00890501)
(13.563 -0.0713086 -0.00775675)
(13.5926 -0.0622961 -0.00679325)
(13.6195 -0.0544691 -0.00594241)
(13.6419 -0.0475371 -0.00528464)
(13.6698 -0.0403505 -0.00421801)
(13.9972 0.256948 0.0240217)
(13.987 0.744744 0.0684493)
(14.0359 1.2523 0.113843)
(14.2856 1.67918 0.15335)
(14.7799 1.75286 0.160319)
(15.2786 1.52538 0.0724794)
(15.362 0.443343 0.0195889)
(14.5162 -0.38614 -0.0405678)
(13.9567 -0.623312 -0.060759)
(13.6066 -0.668256 -0.0618815)
(13.412 -0.632443 -0.0571178)
(13.3091 -0.571957 -0.050996)
(13.2612 -0.507412 -0.0448956)
(13.2484 -0.445101 -0.0391803)
(13.2584 -0.387104 -0.0339488)
(13.283 -0.334383 -0.0292509)
(13.3164 -0.287422 -0.0251079)
(13.3543 -0.246333 -0.0215234)
(13.3943 -0.210383 -0.0184461)
(13.4339 -0.180613 -0.0158371)
(13.4715 -0.155608 -0.0136465)
(13.5068 -0.134345 -0.0117915)
(13.5395 -0.11639 -0.0102265)
(13.5695 -0.101262 -0.00890846)
(13.5971 -0.0884927 -0.00779748)
(13.6223 -0.0776689 -0.00685729)
(13.6453 -0.0684219 -0.0060607)
(13.6667 -0.0603261 -0.00535207)
(13.6848 -0.0530936 -0.00480266)
(13.7081 -0.0455294 -0.00389565)
(14.0059 0.211175 0.0167228)
(14.0406 0.602718 0.0468265)
(14.1267 0.969476 0.07448)
(14.3222 1.24188 0.095136)
(14.6166 1.26609 0.0969005)
(14.8448 0.92704 0.0682359)
(14.8034 0.410648 0.0285172)
(14.5136 -0.0468483 -0.00710627)
(14.1801 -0.296167 -0.0249107)
(13.9228 -0.404467 -0.0319302)
(13.7468 -0.435178 -0.0334312)
(13.6325 -0.427186 -0.0322781)
(13.5623 -0.401141 -0.0299917)
(13.5228 -0.367325 -0.0272745)
(13.5048 -0.330885 -0.0244515)
(13.5017 -0.294613 -0.0216985)
(13.5091 -0.26013 -0.0191162)
(13.5232 -0.228417 -0.0167638)
(13.5416 -0.199634 -0.0146577)
(13.5624 -0.174415 -0.0128094)
(13.5841 -0.1525 -0.0112144)
(13.6057 -0.133475 -0.00982967)
(13.6267 -0.117065 -0.00863505)
(13.6468 -0.102968 -0.00760982)
(13.6659 -0.0908757 -0.00673214)
(13.6838 -0.080492 -0.00598018)
(13.7006 -0.0715326 -0.00533778)
(13.7167 -0.0636361 -0.00476332)
(13.7307 -0.0565394 -0.00431777)
(13.7494 -0.0490024 -0.00356839)
(14.0095 0.166354 0.0114791)
(14.0622 0.476338 0.0320284)
(14.1562 0.754269 0.0499292)
(14.3124 0.948954 0.0620875)
(14.509 0.97054 0.0630764)
(14.6513 0.762371 0.0483469)
(14.6428 0.435095 0.0265131)
(14.492 0.116063 0.00549859)
(14.2886 -0.0992071 -0.00792685)
(14.1055 -0.223993 -0.0154366)
(13.9611 -0.286305 -0.0189713)
(13.8547 -0.309239 -0.0200788)
(13.7798 -0.309101 -0.0198341)
(13.7292 -0.296037 -0.0188612)
(13.6968 -0.276098 -0.0175125)
(13.6779 -0.252948 -0.0160005)
(13.6691 -0.228855 -0.0144552)
(13.6676 -0.205276 -0.0129582)
(13.6712 -0.182986 -0.0115526)
(13.6785 -0.162457 -0.010273)
(13.688 -0.144057 -0.00913024)
(13.6988 -0.127706 -0.00811329)
(13.7103 -0.1133 -0.0072173)
(13.722 -0.1007 -0.00643422)
(13.7338 -0.0897308 -0.00575386)
(13.7453 -0.080202 -0.00516446)
(13.7566 -0.0719156 -0.00465778)
(13.7678 -0.0645833 -0.00420394)
(13.7778 -0.0579824 -0.00385299)
(13.7921 -0.0508234 -0.0032526)
(14.01 0.126634 0.00782359)
(14.0659 0.369919 0.0220237)
(14.1552 0.588273 0.0342483)
(14.2827 0.739022 0.0423094)
(14.4267 0.766353 0.0434159)
(14.5307 0.6413 0.0355651)
(14.543 0.425003 0.023023)
(14.4656 0.196965 0.0099829)
(14.3416 0.0191586 0.000230083)
(14.2142 -0.101837 -0.00626637)
(14.102 -0.175614 -0.0101387)
(14.0107 -0.214841 -0.0121331)
(13.94 -0.230975 -0.0129073)
(13.887 -0.232347 -0.0129162)
(13.8482 -0.224675 -0.0124599)
(13.8209 -0.211764 -0.0117367)
(13.8024 -0.196131 -0.0108768)
(13.7908 -0.179452 -0.00996641)
(13.7844 -0.162768 -0.00905918)
(13.782 -0.146756 -0.00819259)
(13.7825 -0.131892 -0.00738937)
(13.785 -0.118328 -0.00665543)
(13.7889 -0.10612 -0.0059943)
(13.7938 -0.0952552 -0.00540578)
(13.7995 -0.0856664 -0.00488713)
(13.8055 -0.0772538 -0.00443345)
(13.8119 -0.0699009 -0.00404197)
(13.8188 -0.0633966 -0.00369266)
(13.8252 -0.0575745 -0.00342448)
(13.8354 -0.051087 -0.0029604)
(14.0087 0.0932696 0.00533333)
(14.0603 0.282673 0.0153268)
(14.14 0.458087 0.0240923)
(14.2466 0.581325 0.0299649)
(14.3611 0.614098 0.0313157)
(14.4477 0.540042 0.0271447)
(14.475 0.394998 0.019658)
(14.4412 0.229719 0.0112618)
(14.3682 0.0867045 0.00421307)
(14.2821 -0.0214044 -0.00106407)
(14.198 -0.0954273 -0.00466145)
(14.1234 -0.141401 -0.00689481)
(14.0608 -0.166563 -0.00813241)
(14.01 -0.177194 -0.00867738)
(13.9697 -0.17812 -0.00875837)
(13.9384 -0.172844 -0.00853953)
(13.9144 -0.163826 -0.00813642)
(13.8964 -0.152782 -0.00763006)
(13.8833 -0.140859 -0.00707523)
(13.8741 -0.128835 -0.00651029)
(13.868 -0.117244 -0.00596197)
(13.8642 -0.106368 -0.00544399)
(13.8622 -0.0963658 -0.00496516)
(13.8616 -0.0873126 -0.00453029)
(13.8622 -0.0792212 -0.00414144)
(13.8637 -0.072066 -0.00379835)
(13.8658 -0.0658034 -0.00350193)
(13.8688 -0.0602994 -0.00324053)
(13.8721 -0.0554682 -0.0030423)
(13.8784 -0.0498982 -0.00269997)
(14.0063 0.0662059 0.00366744)
(14.0502 0.212106 0.0108912)
(14.1195 0.35407 0.0174777)
(14.2109 0.456954 0.022075)
(14.3083 0.492623 0.0235909)
(14.3873 0.450782 0.0214619)
(14.4262 0.353243 0.0168793)
(14.421 0.233317 0.011309)
(14.3828 0.120841 0.00616941)
(14.3275 0.0289642 0.00196279)
(14.2669 -0.0391833 -0.00118863)
(14.2081 -0.0856626 -0.00337959)
(14.1548 -0.114602 -0.00479428)
(14.1086 -0.130401 -0.00562189)
(14.0694 -0.136863 -0.00602564)
(14.0368 -0.136953 -0.00613212)
(14.01 -0.132886 -0.00603739)
(13.9882 -0.12628 -0.00581286)
(13.9706 -0.11827 -0.00551001)
(13.9566 -0.109648 -0.00516627)
(13.9456 -0.100968 -0.00480888)
(13.937 -0.0925721 -0.00445515)
(13.9305 -0.0846754 -0.00411699)
(13.9255 -0.0774064 -0.00380233)
(13.922 -0.0708335 -0.00351627)
(13.9195 -0.0649876 -0.00326178)
(13.9181 -0.059889 -0.00304204)
(13.9177 -0.0554779 -0.00285276)
(13.918 -0.0517846 -0.00271159)
(13.9208 -0.047346 -0.0024761)
(14.0032 0.0448678 0.00256115)
(14.0384 0.155358 0.00798584)
(14.0982 0.269002 0.0131849)
(14.1786 0.354004 0.0169978)
(14.2665 0.389346 0.0185979)
(14.3429 0.368087 0.0176332)
(14.3912 0.303602 0.014784)
(14.4062 0.21787 0.0109861)
(14.3929 0.131855 0.00717558)
(14.3612 0.0571378 0.00381533)
(14.3198 -0.00175259 0.00110143)
(14.275 -0.0446301 -0.000947095)
(14.2311 -0.073539 -0.00240404)
(14.1903 -0.0913388 -0.00337875)
(14.1536 -0.100817 -0.00398018)
(14.1213 -0.104332 -0.00430198)
(14.0933 -0.10375 -0.00442099)
(14.0693 -0.100491 -0.00439794)
(14.0489 -0.0955907 -0.00427923)
(14.0315 -0.0897954 -0.00410011)
(14.017 -0.0836341 -0.0038872)
(14.0048 -0.0774603 -0.00365932)
(13.9946 -0.0715084 -0.00343013)
(13.9862 -0.0659332 -0.00320948)
(13.9792 -0.0608361 -0.00300448)
(13.9735 -0.0562871 -0.00282035)
(13.9689 -0.05236 -0.00266146)
(13.9655 -0.0490616 -0.0025302)
(13.9631 -0.0465868 -0.00243366)
(13.9625 -0.0434762 -0.00229087)
(13.9999 0.0284974 0.0018108)
(14.0267 0.109659 0.00610073)
(14.0789 0.197363 0.0104419)
(14.152 0.264707 0.0137708)
(14.2346 0.296669 0.0154152)
(14.311 0.288385 0.0151422)
(14.3674 0.247741 0.0133662)
(14.3975 0.188791 0.0107081)
(14.403 0.125903 0.00781611)
(14.3897 0.0683278 0.00508782)
(14.3641 0.0206429 0.00273604)
(14.3317 -0.0158707 0.000839331)
(14.2966 -0.0419452 -0.000611543)
(14.2614 -0.0592431 -0.00166952)
(14.2278 -0.0696605 -0.00240232)
(14.1967 -0.074947 -0.00287682)
(14.1685 -0.0765653 -0.00315295)
(14.1433 -0.0756729 -0.00328143)
(14.121 -0.0731462 -0.00330336)
(14.1013 -0.0696312 -0.00325144)
(14.0841 -0.0655963 -0.00315136)
(14.0691 -0.0613681 -0.00302252)
(14.0561 -0.0571711 -0.00287963)
(14.0448 -0.0531629 -0.00273382)
(14.035 -0.0494574 -0.00259353)
(14.0265 -0.0461454 -0.00246575)
(14.0192 -0.0433427 -0.00235501)
(14.0129 -0.0411052 -0.00227003)
(14.0081 -0.039844 -0.00220638)
(14.004 -0.0382471 -0.00214393)
(13.9971 0.0161886 0.00125239)
(14.017 0.0724943 0.00490793)
(14.0636 0.135005 0.00877831)
(14.1318 0.184068 0.0118318)
(14.2116 0.210106 0.0135268)
(14.2894 0.209578 0.0137042)
(14.3528 0.186467 0.0126263)
(14.3952 0.149101 0.0107207)
(14.4158 0.106681 0.0084586)
(14.4177 0.0658854 0.00617827)
(14.4055 0.0305832 0.00409208)
(14.384 0.0023626 0.00230925)
(14.357 -0.0187306 0.000862479)
(14.3273 -0.0335124 -0.000262069)
(14.2972 -0.0431354 -0.00110155)
(14.2678 -0.0487701 -0.00170153)
(14.24 -0.0514553 -0.00210792)
(14.2143 -0.0520469 -0.0023628)
(14.1907 -0.0512149 -0.00250252)
(14.1694 -0.0494654 -0.00255744)
(14.1502 -0.0471731 -0.00255242)
(14.133 -0.0446071 -0.00250712)
(14.1176 -0.0419576 -0.00243703)
(14.1038 -0.0393644 -0.00235436)
(14.0916 -0.036934 -0.00226845)
(14.0806 -0.03476 -0.00218789)
(14.0709 -0.0329808 -0.00211647)
(14.062 -0.0316736 -0.00206927)
(14.0548 -0.0314773 -0.00202732)
(14.0465 -0.0315091 -0.00203418)
(13.9961 0.00646406 0.000725658)
(14.0109 0.0416566 0.00427092)
(14.053 0.0790128 0.00795009)
(14.117 0.109317 0.0108953)
(14.1946 0.127382 0.0127073)
(14.2743 0.130595 0.0132513)
(14.3447 0.120166 0.0126773)
(14.3983 0.100264 0.0112915)
(14.4325 0.0759474 0.00945438)
(14.4484 0.0513211 0.00746449)
(14.4489 0.029081 0.00553488)
(14.438 0.010601 0.00379674)
(14.4191 -0.00375812 0.00231331)
(14.3953 -0.0142635 0.0011001)
(14.369 -0.0214853 0.000143055)
(14.3419 -0.0260834 -0.000586778)
(14.3151 -0.0286853 -0.00112421)
(14.2893 -0.0298306 -0.00150448)
(14.2651 -0.029954 -0.00176017)
(14.2425 -0.0293918 -0.00191989)
(14.2216 -0.0283957 -0.00200794)
(14.2025 -0.0271518 -0.0020444)
(14.1851 -0.0257914 -0.00204545)
(14.1692 -0.0244174 -0.00202446)
(14.1547 -0.0231049 -0.00199139)
(14.1414 -0.0219282 -0.00195642)
(14.1293 -0.0210231 -0.00192225)
(14.1176 -0.0204042 -0.00190891)
(14.1081 -0.0209122 -0.00188196)
(14.0941 -0.0225149 -0.00194825)
(13.9983 0.000679141 0.000315488)
(14.0092 0.016237 0.00396633)
(14.0448 0.0332658 0.00770377)
(14.1027 0.0486816 0.0107975)
(14.1765 0.0598995 0.0129516)
(14.2571 0.0651136 0.0140071)
(14.3346 0.0639456 0.0139998)
(14.4006 0.0574952 0.0131254)
(14.4505 0.0477115 0.0116629)
(14.4829 0.0365287 0.00988387)
(14.4992 0.0254695 0.00801034)
(14.5019 0.0155275 0.00620352)
(14.4942 0.00719975 0.00456414)
(14.4789 0.000614577 0.00314265)
(14.4587 -0.00432763 0.00195377)
(14.4355 -0.00784885 0.00098908)
(14.411 -0.0102136 0.000226928)
(14.3863 -0.01168 -0.000360442)
(14.3619 -0.0124745 -0.000802168)
(14.3386 -0.0127842 -0.00112606)
(14.3164 -0.0127567 -0.00135706)
(14.2955 -0.0125058 -0.00151685)
(14.276 -0.0121163 -0.00162354)
(14.2578 -0.0116533 -0.00169259)
(14.2409 -0.0111685 -0.00173586)
(14.2251 -0.0106996 -0.00176567)
(14.2104 -0.0103351 -0.00178488)
(14.1955 -0.0100658 -0.00181769)
(14.1841 -0.0102528 -0.00181886)
(14.1608 -0.0118157 -0.00191663)
(13.8901 0.0750418 0.228255)
(13.256 0.278862 0.843587)
(11.659 0.314707 1.59697)
(7.24924 0.412453 3.75667)
(1.64202 -0.15209 -1.55653)
(5.37929 -0.154496 -1.46277)
(7.66754 -0.105611 -0.970466)
(9.20571 -0.0713826 -0.649298)
(10.2863 -0.0489915 -0.444074)
(11.0611 -0.0343781 -0.311207)
(11.6265 -0.0247273 -0.223732)
(12.0466 -0.0182285 -0.164909)
(12.3647 -0.01376 -0.124459)
(12.6541 -0.0203659 -0.102439)
(12.9051 -0.029773 -0.090138)
(13.0382 -0.0242114 -0.0733831)
(13.1461 -0.0198257 -0.0601314)
(13.2359 -0.0164149 -0.0497876)
(13.3114 -0.0137415 -0.0416767)
(13.3753 -0.0116126 -0.0352227)
(13.4298 -0.00989376 -0.0300132)
(13.4766 -0.00849086 -0.0257522)
(13.5174 -0.00727698 -0.0220944)
(13.5503 -0.00635268 -0.0191147)
(13.5893 -0.00491718 -0.0153898)
(13.902 0.202017 0.201791)
(13.3913 0.719592 0.718298)
(12.1389 1.37711 1.37357)
(8.81545 3.15785 3.14513)
(4.62531 -1.60657 -1.61527)
(7.24154 -1.19548 -1.21204)
(8.77072 -0.804033 -0.812813)
(9.86968 -0.555295 -0.559169)
(10.6937 -0.391555 -0.393367)
(11.3182 -0.281403 -0.282375)
(11.7941 -0.206284 -0.206887)
(12.1599 -0.154297 -0.15472)
(12.444 -0.11774 -0.118065)
(12.7188 -0.0970288 -0.0973126)
(12.9623 -0.0849678 -0.0852421)
(13.0829 -0.0695612 -0.0698054)
(13.1818 -0.0572908 -0.0575108)
(13.265 -0.0476337 -0.0478339)
(13.3354 -0.0400107 -0.0401943)
(13.3954 -0.0339121 -0.0340813)
(13.4468 -0.0289672 -0.0291238)
(13.4912 -0.0249063 -0.0250515)
(13.5301 -0.0214165 -0.0215513)
(13.5618 -0.0185588 -0.0186839)
(13.5991 -0.01496 -0.0150777)
(13.9299 0.273262 0.1636)
(13.5842 0.907139 0.541373)
(12.8898 1.79941 0.991998)
(11.8638 4.07519 2.27836)
(11.2131 9.45541 4.83276)
(5.36169 -2.8768 -1.34645)
(9.34032 -2.18921 -1.13614)
(9.9311 -1.46833 -0.770857)
(10.4857 -1.04136 -0.550968)
(10.9939 -0.763246 -0.404382)
(11.441 -0.568757 -0.301086)
(11.8228 -0.428585 -0.226656)
(12.1418 -0.326547 -0.172573)
(12.4052 -0.25186 -0.133049)
(12.6216 -0.196927 -0.103991)
(12.8509 -0.156905 -0.0870002)
(13.0638 -0.128054 -0.0767517)
(13.1635 -0.105944 -0.0635233)
(13.2471 -0.0881715 -0.0528402)
(13.3186 -0.0739347 -0.0443138)
(13.3801 -0.0625395 -0.0374973)
(13.4331 -0.0533268 -0.0319866)
(13.4791 -0.0457905 -0.0274792)
(13.5191 -0.0395417 -0.0237499)
(13.5544 -0.0341798 -0.0205286)
(13.5836 -0.029541 -0.0178756)
(13.6181 -0.0246072 -0.0145065)
(13.9636 0.290113 0.126126)
(13.7687 0.915296 0.392216)
(13.5945 1.80568 0.770806)
(13.4316 3.15952 1.21974)
(14.3646 5.23598 1.87109)
(20.2528 7.86681 2.75773)
(16.5771 -5.7701 -1.97862)
(12.091 -2.73868 -0.983923)
(11.69 -1.7548 -0.627776)
(11.6763 -1.27347 -0.455224)
(11.7934 -0.97223 -0.348011)
(11.9662 -0.760191 -0.272171)
(12.1594 -0.600029 -0.214649)
(12.353 -0.475491 -0.16992)
(12.5351 -0.37814 -0.135014)
(12.6999 -0.302225 -0.107847)
(12.8454 -0.243384 -0.0867775)
(13.019 -0.194884 -0.0742312)
(13.1907 -0.156382 -0.06644)
(13.2667 -0.131122 -0.0557301)
(13.3323 -0.110502 -0.0469311)
(13.3898 -0.0936668 -0.0397852)
(13.4402 -0.0799598 -0.0339773)
(13.4844 -0.068722 -0.0292184)
(13.5234 -0.0594213 -0.0252823)
(13.5578 -0.0516293 -0.0219961)
(13.5885 -0.0449055 -0.0191377)
(13.6141 -0.0389797 -0.0167698)
(13.645 -0.0329055 -0.0137302)
(13.9859 0.27378 0.0936482)
(13.9122 0.818325 0.275733)
(13.8919 1.47103 0.489735)
(13.9938 2.27288 0.657726)
(14.7836 2.8401 0.826955)
(16.0722 2.17362 0.642739)
(16.759 0.35367 0.0926805)
(14.7777 -1.22844 -0.370015)
(13.537 -1.33022 -0.396712)
(13.0146 -1.11273 -0.329393)
(12.814 -0.913549 -0.268243)
(12.7539 -0.757356 -0.221046)
(12.763 -0.632135 -0.183838)
(12.8102 -0.52811 -0.153241)
(12.8787 -0.4403 -0.127562)
(12.9574 -0.366292 -0.106005)
(13.0391 -0.304471 -0.0880668)
(13.1187 -0.253343 -0.0733053)
(13.1951 -0.212019 -0.0612864)
(13.3264 -0.170717 -0.055829)
(13.3798 -0.145236 -0.0475289)
(13.4278 -0.124039 -0.0405792)
(13.4711 -0.106405 -0.0348229)
(13.51 -0.0917783 -0.0300552)
(13.5449 -0.0795966 -0.0260886)
(13.5762 -0.0693828 -0.0227668)
(13.6043 -0.0607319 -0.0199663)
(13.6299 -0.0532096 -0.0175121)
(13.6515 -0.0465073 -0.0154683)
(13.6782 -0.0396597 -0.0128078)
(13.9995 0.239712 0.0672779)
(14.0008 0.691742 0.19184)
(14.0591 1.15064 0.315896)
(14.2973 1.52552 0.413822)
(14.7402 1.58401 0.435591)
(15.1971 1.40895 0.323166)
(15.2693 0.450377 0.0985596)
(14.5149 -0.300657 -0.0969404)
(14.0098 -0.53917 -0.157558)
(13.6767 -0.597979 -0.16629)
(13.4835 -0.576245 -0.156455)
(13.3769 -0.527014 -0.141396)
(13.3237 -0.471308 -0.125593)
(13.3048 -0.41614 -0.1104)
(13.3085 -0.364005 -0.0962633)
(13.3271 -0.316079 -0.0834078)
(13.3548 -0.272987 -0.0719551)
(13.3876 -0.234993 -0.0619511)
(13.4232 -0.201587 -0.0532783)
(13.459 -0.173558 -0.0459178)
(13.4934 -0.149926 -0.039691)
(13.5258 -0.129768 -0.0343839)
(13.5562 -0.112686 -0.0298844)
(13.5844 -0.0982468 -0.0260826)
(13.6103 -0.086025 -0.0228695)
(13.6341 -0.0756411 -0.0201446)
(13.6559 -0.066752 -0.0178259)
(13.6762 -0.0589635 -0.0157803)
(13.6937 -0.051966 -0.0140705)
(13.7159 -0.044759 -0.0118068)
(14.0068 0.198361 0.0471175)
(14.0461 0.565278 0.132246)
(14.1348 0.904567 0.209235)
(14.3227 1.1516 0.264541)
(14.5949 1.17259 0.269695)
(14.803 0.86899 0.191692)
(14.7685 0.403268 0.0867014)
(14.5092 -0.0159894 -0.0128064)
(14.2021 -0.254675 -0.0649606)
(13.9573 -0.364412 -0.0867288)
(13.7858 -0.399895 -0.0925253)
(13.6722 -0.397073 -0.0904012)
(13.6008 -0.375789 -0.0846995)
(13.5591 -0.346162 -0.0775173)
(13.5383 -0.313356 -0.0698599)
(13.5323 -0.280197 -0.0622761)
(13.5366 -0.248343 -0.0550866)
(13.5479 -0.218809 -0.0484817)
(13.5637 -0.191818 -0.0425269)
(13.5821 -0.168046 -0.0372631)
(13.6017 -0.147279 -0.0326944)
(13.6214 -0.129181 -0.0287165)
(13.6408 -0.113521 -0.0252725)
(13.6595 -0.100031 -0.0223084)
(13.6773 -0.0884322 -0.0197648)
(13.6942 -0.0784537 -0.0175821)
(13.7101 -0.0698306 -0.0157098)
(13.7253 -0.0622283 -0.0140506)
(13.7387 -0.0553588 -0.0126627)
(13.7565 -0.0481803 -0.0107896)
(14.0097 0.157151 0.0325006)
(14.0636 0.450064 0.0910476)
(14.1575 0.711156 0.141643)
(14.3087 0.892133 0.175539)
(14.4947 0.91253 0.178553)
(14.6286 0.724021 0.138256)
(14.6236 0.423317 0.0783917)
(14.4865 0.126742 0.0192877)
(14.297 -0.0788935 -0.0196603)
(14.1225 -0.201071 -0.0418891)
(13.9829 -0.263956 -0.0527572)
(13.8786 -0.28884 -0.056574)
(13.8042 -0.291077 -0.0563534)
(13.7531 -0.280401 -0.0539131)
(13.7197 -0.262704 -0.0502954)
(13.6995 -0.241584 -0.0461337)
(13.6892 -0.219286 -0.0418197)
(13.6861 -0.19726 -0.0376008)
(13.6883 -0.176298 -0.0336137)
(13.694 -0.156879 -0.0299537)
(13.7022 -0.13939 -0.0266693)
(13.7118 -0.123793 -0.0237397)
(13.7221 -0.110012 -0.0211507)
(13.7329 -0.0979296 -0.0188823)
(13.7437 -0.0873906 -0.0169074)
(13.7545 -0.0782216 -0.0151943)
(13.765 -0.070239 -0.0137161)
(13.7756 -0.0631775 -0.0124049)
(13.7852 -0.056787 -0.0113118)
(13.7987 -0.0499739 -0.00980664)
(14.0099 0.120167 0.0222399)
(14.0656 0.351469 0.0629576)
(14.1537 0.558721 0.0978853)
(14.2779 0.70133 0.120869)
(14.4164 0.727928 0.124242)
(14.5164 0.613426 0.102722)
(14.5307 0.41238 0.0677108)
(14.4601 0.198265 0.030758)
(14.344 0.0283197 0.0024891)
(14.2225 -0.0890045 -0.0165711)
(14.1141 -0.161656 -0.0281271)
(14.0252 -0.201164 -0.0342467)
(13.9557 -0.218256 -0.0367806)
(13.903 -0.220872 -0.0370391)
(13.8642 -0.214519 -0.0358982)
(13.8364 -0.202897 -0.0339401)
(13.8172 -0.188464 -0.0315502)
(13.8048 -0.172868 -0.0289851)
(13.7976 -0.157146 -0.0264072)
(13.7944 -0.141965 -0.0239268)
(13.794 -0.127806 -0.0216161)
(13.7957 -0.114842 -0.0194984)
(13.7989 -0.103143 -0.0175851)
(13.8031 -0.0927078 -0.015878)
(13.8081 -0.0834831 -0.0143707)
(13.8136 -0.0753808 -0.0130509)
(13.8194 -0.0682939 -0.0119082)
(13.8258 -0.0620305 -0.0108986)
(13.8319 -0.0563959 -0.0100653)
(13.8415 -0.0502315 -0.00889561)
(14.0085 0.0888104 0.0152068)
(14.0594 0.269685 0.0440187)
(14.1378 0.437312 0.0692619)
(14.242 0.555132 0.0862395)
(14.3532 0.58722 0.0902967)
(14.4377 0.519096 0.0788408)
(14.466 0.383157 0.0577474)
(14.436 0.226893 0.0338062)
(14.3677 0.0899638 0.0133608)
(14.2857 -0.0145905 -0.00207823)
(14.2046 -0.086888 -0.0127106)
(14.1321 -0.13233 -0.019401)
(14.0709 -0.157653 -0.0231803)
(14.0208 -0.168821 -0.0249187)
(13.9809 -0.170466 -0.0252789)
(13.9496 -0.165975 -0.0247404)
(13.9254 -0.15774 -0.0236431)
(13.9072 -0.147439 -0.0222262)
(13.8937 -0.136199 -0.020653)
(13.884 -0.124787 -0.0190375)
(13.8774 -0.113732 -0.0174602)
(13.8731 -0.103323 -0.0159646)
(13.8706 -0.0937261 -0.0145778)
(13.8696 -0.0850219 -0.0133154)
(13.8697 -0.0772313 -0.0121847)
(13.8708 -0.0703365 -0.0111861)
(13.8726 -0.0642999 -0.0103207)
(13.8751 -0.0590038 -0.00956484)
(13.8781 -0.0543333 -0.00895301)
(13.884 -0.0490558 -0.00808176)
(14.0061 0.0631931 0.0104748)
(14.0492 0.202952 0.0314003)
(14.1173 0.339202 0.050487)
(14.2068 0.438169 0.0638885)
(14.3022 0.473089 0.0684102)
(14.3798 0.434629 0.0625796)
(14.4191 0.34274 0.0495923)
(14.416 0.228815 0.0336295)
(14.3808 0.120935 0.0187065)
(14.3284 0.0321411 0.00640906)
(14.2701 -0.0341918 -0.0028707)
(14.2131 -0.0797894 -0.00937593)
(14.1612 -0.108464 -0.013617)
(14.1158 -0.124376 -0.0161344)
(14.0772 -0.131168 -0.0173997)
(14.0449 -0.131701 -0.0177817)
(14.0182 -0.128123 -0.0175619)
(13.9964 -0.122011 -0.0169505)
(13.9787 -0.114474 -0.0160997)
(13.9645 -0.106293 -0.0151207)
(13.9533 -0.0980105 -0.0140945)
(13.9445 -0.08997 -0.0130738)
(13.9376 -0.0823875 -0.0120946)
(13.9324 -0.0753944 -0.0111812)
(13.9285 -0.0690632 -0.0103493)
(13.9258 -0.0634298 -0.00960846)
(13.9241 -0.0585171 -0.00896743)
(13.9234 -0.0542793 -0.00841919)
(13.9235 -0.0507179 -0.00799018)
(13.9259 -0.0465343 -0.00737976)
(14.0031 0.0428855 0.00731632)
(14.0375 0.148933 0.0230984)
(14.0962 0.2583 0.0382455)
(14.1753 0.340355 0.0494102)
(14.2615 0.374912 0.0541653)
(14.3368 0.355552 0.0515705)
(14.3852 0.294624 0.0434675)
(14.4014 0.212929 0.032541)
(14.39 0.130321 0.021462)
(14.3603 0.0581229 0.0116363)
(14.3207 0.000898891 0.00365635)
(14.2775 -0.0410066 -0.00240155)
(14.2348 -0.0694479 -0.00673601)
(14.1949 -0.0871186 -0.00965704)
(14.1589 -0.0966817 -0.0114783)
(14.1271 -0.10041 -0.0124723)
(14.0994 -0.10011 -0.0128637)
(14.0755 -0.097161 -0.0128307)
(14.0552 -0.0925769 -0.0125103)
(14.0379 -0.0870867 -0.0120067)
(14.0232 -0.0812101 -0.0113989)
(14.0109 -0.0752971 -0.0107432)
(14.0006 -0.0695807 -0.0100806)
(13.992 -0.0642163 -0.00944067)
(13.9849 -0.0593069 -0.00884487)
(13.979 -0.054925 -0.00830907)
(13.9743 -0.051145 -0.00784644)
(13.9706 -0.0479848 -0.00746438)
(13.9681 -0.0456123 -0.00718086)
(13.9672 -0.0427133 -0.00679566)
(13.9999 0.0272434 0.00516299)
(14.026 0.105228 0.0176983)
(14.0773 0.189779 0.0304074)
(14.1492 0.254908 0.0401772)
(14.2304 0.286113 0.0450551)
(14.3058 0.278832 0.0443997)
(14.362 0.240385 0.0393414)
(14.3927 0.18411 0.0316695)
(14.3994 0.123667 0.0232463)
(14.3875 0.0680443 0.0152604)
(14.3634 0.0217637 0.00834638)
(14.3323 -0.0138369 0.00274678)
(14.2982 -0.0393843 -0.00155424)
(14.2639 -0.0564335 -0.00470406)
(14.2311 -0.0667917 -0.00689703)
(14.2006 -0.0721413 -0.00832735)
(14.1728 -0.0738969 -0.00917009)
(14.1479 -0.073182 -0.00957394)
(14.1258 -0.0708508 -0.00966002)
(14.1063 -0.0675346 -0.0095249)
(14.0891 -0.0636924 -0.00924458)
(14.0742 -0.0596456 -0.0088768)
(14.0611 -0.0556162 -0.00846536)
(14.0498 -0.0517609 -0.00804354)
(14.0399 -0.0481936 -0.00763655)
(14.0313 -0.0450062 -0.00726494)
(14.0239 -0.0423134 -0.00694389)
(14.0176 -0.0401789 -0.00669308)
(14.0126 -0.038991 -0.00651977)
(14.0082 -0.0375541 -0.006328)
(13.9971 0.0154332 0.00354891)
(14.0165 0.0695921 0.0142671)
(14.0623 0.129935 0.0256401)
(14.1294 0.17742 0.0346186)
(14.2079 0.202796 0.0396503)
(14.2847 0.20271 0.0402796)
(14.3477 0.180856 0.0372199)
(14.3902 0.145153 0.0317072)
(14.4115 0.104369 0.0251046)
(14.4143 0.0649693 0.0184178)
(14.4033 0.0307413 0.0122783)
(14.3829 0.00327733 0.0070146)
(14.3569 -0.0173288 0.00273097)
(14.3281 -0.0318306 -0.000607538)
(14.2987 -0.0413229 -0.0031067)
(14.27 -0.0469297 -0.00489874)
(14.2427 -0.0496539 -0.00611789)
(14.2174 -0.0503256 -0.00688767)
(14.1941 -0.0495967 -0.00731524)
(14.173 -0.0479611 -0.00749032)
(14.154 -0.0457849 -0.00748634)
(14.1369 -0.0433324 -0.00736175)
(14.1216 -0.0407909 -0.00716248)
(14.1079 -0.0382985 -0.00692487)
(14.0957 -0.0359608 -0.00667685)
(14.0848 -0.0338712 -0.00644293)
(14.075 -0.0321671 -0.00623829)
(14.066 -0.030927 -0.00609317)
(14.0588 -0.0307787 -0.00599732)
(14.0503 -0.0309069 -0.00597114)
(13.9962 0.00607726 0.0020569)
(14.0106 0.0399806 0.0123773)
(14.0518 0.0760993 0.0231803)
(14.1148 0.105442 0.0318571)
(14.1912 0.123027 0.0372517)
(14.2697 0.126362 0.0389655)
(14.3394 0.116534 0.0373933)
(14.3929 0.0975156 0.0334124)
(14.4274 0.0741328 0.0280664)
(14.4438 0.0503522 0.0222388)
(14.4453 0.0288013 0.0165627)
(14.4352 0.0108363 0.0114308)
(14.4172 -0.00316624 0.00703704)
(14.3943 -0.013444 0.00343333)
(14.3688 -0.020536 0.000582874)
(14.3423 -0.0250746 -0.00159685)
(14.3161 -0.0276653 -0.00320685)
(14.2909 -0.0288309 -0.00435021)
(14.267 -0.0289941 -0.00512286)
(14.2447 -0.0284828 -0.00560937)
(14.2242 -0.0275428 -0.00588165)
(14.2053 -0.0263566 -0.00599939)
(14.1881 -0.025053 -0.0060108)
(14.1723 -0.0237336 -0.00595552)
(14.1579 -0.0224725 -0.00586391)
(14.1447 -0.0213429 -0.00576428)
(14.1326 -0.0204817 -0.00567148)
(14.121 -0.0198936 -0.00562205)
(14.1116 -0.0204341 -0.00558361)
(14.0976 -0.0220474 -0.00570161)
(13.9984 0.000579409 0.000932531)
(14.009 0.0155418 0.0113563)
(14.0438 0.03204 0.0221807)
(14.1007 0.0470091 0.0312194)
(14.1732 0.0579692 0.0375581)
(14.2525 0.0631788 0.0407373)
(14.329 0.0622244 0.0408378)
(14.3944 0.0561359 0.038403)
(14.4441 0.0467661 0.0342263)
(14.4767 0.0359798 0.0290965)
(14.4935 0.0252585 0.0236644)
(14.4969 0.0155783 0.0184036)
(14.4899 0.00743713 0.0136131)
(14.4755 0.000973604 0.00944571)
(14.456 -0.00389825 0.00594934)
(14.4336 -0.00738663 0.0031034)
(14.4098 -0.00974425 0.000847589)
(14.3856 -0.0112198 -0.000897044)
(14.3618 -0.0120333 -0.00221426)
(14.3389 -0.0123672 -0.00318455)
(14.3171 -0.0123661 -0.00388053)
(14.2966 -0.0121421 -0.00436549)
(14.2774 -0.0117788 -0.00469272)
(14.2595 -0.0113405 -0.00490745)
(14.2428 -0.0108793 -0.00504549)
(14.2272 -0.010431 -0.00514062)
(14.2127 -0.0100891 -0.00520962)
(14.1979 -0.00982686 -0.0052985)
(14.1866 -0.0100455 -0.00534335)
(14.1635 -0.0115693 -0.00557071)
(13.9144 0.0599802 0.303518)
(13.5038 0.20327 1.02944)
(12.6342 0.22226 2.0492)
(10.7504 0.267148 4.53641)
(1.32114 -0.0269587 -0.781731)
(8.26315 -0.158102 -2.70993)
(9.20296 -0.100436 -1.74459)
(9.97527 -0.0697053 -1.20164)
(10.6386 -0.0501142 -0.86056)
(11.1945 -0.0366431 -0.628658)
(11.6507 -0.0271539 -0.465882)
(12.0203 -0.020404 -0.350179)
(12.3177 -0.0155625 -0.267185)
(12.5573 -0.0120616 -0.207139)
(12.7968 -0.0181445 -0.164995)
(13.0148 -0.0267119 -0.135334)
(13.1243 -0.0219734 -0.111449)
(13.2151 -0.018181 -0.0923516)
(13.2922 -0.0151857 -0.0771579)
(13.358 -0.0128061 -0.0650688)
(13.4144 -0.0108907 -0.055341)
(13.4631 -0.0093301 -0.0474146)
(13.5052 -0.00804661 -0.040865)