/*--------------------------------*- C++ -*----------------------------------*\
  =========                 |
  \\      /  F ield         | OpenFOAM: The Open Source CFD Toolbox
   \\    /   O peration     | Website:  https://openfoam.org
    \\  /    A nd           | Version:  10
     \\/     M anipulation  |
\*---------------------------------------------------------------------------*/
FoamFile
{
    format      ascii;
    class       volScalarField;
    location    "400";
    object      k;
}
// * * * * * * * * * * * * * * * * * * * * * * * * * * * * * * * * * * * * * //

dimensions      [0 2 -2 0 0 0 0];

internalField   nonuniform List<scalar> 
27507
(
348.951
348.721
350.108
309.541
25.2063
46.8266
63.6272
76.6598
86.0114
92.0726
95.5101
96.9909
97.0561
95.9658
93.8575
91.3764
88.6948
85.9032
83.066
80.2287
77.4235
74.6753
72.0098
69.4935
67.4483
348.691
347.418
348.322
324.498
31.3324
58.2758
75.5127
86.4846
93.3756
97.3891
99.3119
99.7167
99.0185
97.5893
95.283
92.435
89.4808
86.4829
83.487
80.5264
77.6248
74.8009
72.0757
69.5121
67.4317
348.215
345.458
344.766
335.264
5.05538
64.9358
90.1962
101.523
106.52
108.368
108.454
107.437
105.684
103.407
100.864
97.721
94.2663
90.8467
87.4885
84.2116
81.0309
77.9561
74.9955
72.1619
69.512
67.3663
347.642
343.226
338.263
332.032
298.556
29.1554
24.842
114.935
128.271
131.494
130.864
128.318
124.847
120.969
116.944
112.891
108.858
104.876
100.564
96.4188
92.452
88.66
85.0392
81.5854
78.2934
75.1596
72.1881
69.4266
67.1939
347.069
341.118
334.323
324.287
311.066
278.482
230.81
208.711
191.107
177.363
166.116
156.423
147.754
139.86
132.62
125.956
119.805
114.103
108.773
103.235
98.4348
93.9332
89.7085
85.7383
82.0028
78.4846
75.1692
72.0512
69.1692
66.8377
346.557
339.349
331.199
320.671
305.777
289.516
264.127
237.993
217.961
200.428
185.21
171.928
160.22
149.804
140.469
132.056
124.437
117.51
111.197
105.326
99.9433
94.9737
90.3675
86.0867
82.0985
78.3746
74.8925
71.6391
68.6434
66.2099
346.125
337.882
328.632
317.502
303.482
286.059
266.527
246.205
227.048
209.486
193.63
179.409
166.668
155.235
144.951
135.677
127.291
119.687
112.774
106.44
100.642
95.3205
90.4197
85.8939
81.7041
77.8158
74.2006
70.8391
67.7495
65.218
345.765
336.621
326.384
314.547
300.615
284.451
266.686
248.233
230.167
213.084
197.267
182.797
169.647
157.735
146.955
137.198
128.36
120.343
113.057
106.411
100.34
94.7834
89.6841
84.9936
80.6688
76.6718
72.9702
69.54
66.3875
63.767
345.46
335.447
324.174
311.429
297.071
281.168
264.155
246.648
229.355
212.784
197.23
182.833
169.62
157.559
146.587
136.621
127.573
119.355
111.884
105.08
98.8716
93.1983
88.0028
83.2352
78.851
74.8102
71.0786
67.6286
64.4544
61.7575
345.192
334.216
321.669
307.672
292.419
276.151
259.238
242.133
225.316
209.171
193.949
179.788
166.726
154.749
143.817
133.864
124.812
116.582
109.098
102.284
96.0721
90.4014
85.2152
80.4638
76.1024
72.0906
68.3933
64.9808
61.837
59.0794
344.946
332.719
318.381
302.58
285.912
268.792
251.555
234.519
217.991
202.226
187.396
173.603
160.864
149.17
138.483
128.743
119.879
111.818
104.486
97.8137
91.7353
86.1912
81.1264
76.4921
72.2443
68.3427
64.7532
61.4437
58.3969
55.5993
344.703
330.559
313.415
294.93
276.231
257.857
240.052
222.953
206.689
191.368
177.065
163.813
151.604
140.412
130.192
120.881
112.412
104.712
97.7136
91.3487
85.5555
80.2769
75.4599
71.0575
67.0276
63.3307
59.9356
56.8049
53.9429
51.1353
344.435
326.761
304.764
282.236
260.847
241.006
222.662
205.654
189.883
175.274
161.79
149.385
138.015
127.629
118.166
109.559
101.741
94.6428
88.1982
82.3442
77.0225
72.1796
67.7658
63.737
60.0544
56.6791
53.5879
50.7257
48.1698
45.403
343.978
318.202
287.12
258.793
234.437
213.538
195.291
179.076
164.488
151.24
139.179
128.19
118.184
109.086
100.824
93.3297
86.537
80.382
74.8041
69.7462
65.1559
60.9855
57.1905
53.7316
50.5756
47.6825
45.051
42.5719
40.4962
37.8729
341.91
291.592
243.99
209.624
184.199
164.606
148.655
135.164
123.42
112.985
103.621
95.1738
87.5405
80.6294
74.3728
68.7149
63.6019
58.9822
54.8071
51.0312
47.6122
44.5134
41.6986
39.1375
36.8085
34.6615
32.7569
30.8431
29.508
27.2779
317.06
174.865
118.163
91.1686
75.6737
65.5792
58.205
52.3735
47.5075
43.2978
39.5814
36.2642
33.2868
30.6144
28.2094
26.0398
24.0814
22.3132
20.7165
19.2729
17.968
16.7832
15.7149
14.7292
13.8619
13.0112
12.3442
11.5338
11.1373
10.1522
348.69
347.416
348.306
323.919
30.5825
57.9379
75.3647
86.4176
93.3437
97.3732
99.3035
99.7118
99.0154
97.5869
95.281
92.4334
89.4796
86.482
83.4862
80.5258
77.6243
74.8004
72.0753
69.5118
67.4314
348.448
346.36
346.707
331.039
41.8833
70.6754
86.3455
95.0015
99.7518
102.062
102.714
102.197
100.831
99.0822
96.5872
93.4114
90.2094
87.0213
83.8778
80.8019
77.8097
74.9143
72.1326
69.524
67.41
348.009
344.658
343.497
333.227
128.044
17.9283
82.5663
102.01
109.934
112.75
113.046
111.971
110.084
107.674
104.903
102.115
98.8192
95.0977
91.472
87.9524
84.5483
81.2668
78.112
75.0876
72.2032
69.5123
67.3356
347.482
342.632
337.143
331.329
305.462
95.5015
67.8423
134.721
139.64
139.042
136.268
132.374
127.968
123.395
118.833
114.36
109.997
105.852
101.423
97.0783
92.9521
89.032
85.3081
81.7712
78.412
75.2242
72.2089
69.4118
67.1515
346.953
340.724
333.718
327.395
311.554
283.14
241.605
217.584
197.875
182.668
170.298
159.749
150.425
142.02
134.369
127.37
120.941
115.009
109.489
103.869
98.927
94.308
89.9862
85.9361
82.1351
78.5631
75.2036
72.0494
69.1376
66.7823
346.476
339.082
330.755
320.079
305.582
290.133
265.939
240.498
220.572
202.915
187.466
173.916
161.941
151.275
141.712
133.095
125.296
118.211
111.759
105.771
100.289
95.2357
90.5586
86.2181
82.1798
78.4141
74.8974
71.6152
68.5952
66.1416
346.069
337.701
328.33
317.132
303.236
286.167
267.086
247.176
228.229
210.732
194.845
180.539
167.688
156.136
145.732
136.343
127.85
120.148
113.147
106.735
100.87
95.4886
90.5367
85.9673
81.7404
77.8206
74.1789
70.7951
67.6864
65.1382
345.726
336.496
326.177
314.292
300.402
284.391
266.84
248.608
230.7
213.703
197.914
183.43
170.24
158.272
147.43
137.609
128.707
120.629
113.287
106.59
100.473
94.8759
89.7409
85.0193
80.6677
76.6475
72.9263
69.4794
66.3123
63.6781
345.433
335.36
324.026
311.24
296.888
281.051
264.143
246.759
229.568
213.065
197.548
183.161
169.939
157.856
146.853
136.853
127.769
119.515
112.009
105.172
98.9335
93.233
88.0131
83.224
78.8209
74.7636
71.0179
67.5557
64.3708
61.6628
345.174
334.154
321.558
307.524
292.259
276.013
259.151
242.112
225.359
209.263
194.073
179.929
166.871
154.889
143.944
133.974
124.903
116.653
109.148
102.313
96.0825
90.3942
85.1919
80.426
76.0518
72.0286
68.3215
64.9004
61.749
58.9827
344.933
332.673
318.297
302.459
285.769
268.648
251.431
234.428
217.939
202.208
187.404
173.628
160.899
149.207
138.518
128.772
119.9
111.828
104.485
97.8009
91.7112
86.1564
81.0815
76.4379
72.1816
68.2726
64.6765
61.3611
58.3092
55.5048
344.695
330.526
313.348
294.828
276.101
257.713
239.909
222.825
206.583
191.285
177.003
163.768
151.57
140.386
130.17
120.86
112.388
104.685
97.6816
91.3111
85.512
80.2274
75.4045
70.9965
66.9614
63.2598
59.8604
56.7258
53.8606
51.0479
344.43
326.737
304.712
282.149
260.728
240.865
222.512
205.508
189.749
175.157
161.689
149.3
137.944
127.568
118.113
109.511
101.696
94.5981
88.1529
82.2972
76.9732
72.1274
67.7106
63.6787
59.993
56.6148
53.5209
50.6562
48.0982
45.3279
343.975
318.186
287.078
258.717
234.327
213.402
195.141
178.926
164.345
151.11
139.065
128.092
118.1
109.014
100.762
93.2756
86.4883
80.3368
74.7608
69.7037
65.1133
60.942
57.1456
53.6851
50.5273
47.6324
44.9991
42.5182
40.4407
37.8161
341.909
291.581
243.955
209.558
184.101
164.485
148.52
135.027
123.29
112.868
103.519
95.0865
87.4671
80.5691
74.3234
68.6741
63.5675
58.9524
54.7803
51.0061
47.5878
44.489
41.6736
39.1115
36.7813
34.6329
32.7268
30.8123
29.4737
27.2463
317.06
174.86
118.143
91.1339
75.6247
65.5203
58.1407
52.3091
47.447
43.2436
39.5349
36.2256
33.2557
30.5892
28.1893
26.024
24.0689
22.3033
20.7082
19.2658
17.9616
16.7771
15.7088
14.7228
13.8553
13.0038
12.3366
11.5258
11.1273
10.1466
348.214
345.454
344.749
335.141
4.65228
64.1124
89.8115
101.315
106.406
108.304
108.418
107.416
105.671
103.398
100.857
97.7158
94.2622
90.8435
87.4859
84.2095
81.0292
77.9547
74.9943
72.1609
69.5111
67.3654
348.008
344.656
343.495
333.345
96.5626
20.174
82.5552
101.867
109.829
112.687
113.008
111.949
110.07
107.666
104.897
102.111
98.816
95.0951
91.47
87.9507
84.5469
81.2657
78.1111
75.0868
72.2025
69.5117
67.3351
347.644
343.271
340.982
332.721
292.335
104.253
122.185
127.32
127.804
126.007
123.089
119.633
115.933
112.133
108.295
104.672
100.7
96.5322
92.552
88.7499
85.1206
81.6593
78.3607
75.2211
72.2443
69.4787
67.2443
347.197
341.599
335.275
329.482
310.443
262.028
195.046
177.868
170.256
162.154
154.772
147.866
141.236
134.874
128.821
123.1
117.705
112.607
107.852
102.901
98.216
93.8123
89.6663
85.7588
82.0728
78.5928
75.3071
72.2124
69.3503
67.0385
346.743
340.007
332.421
322.183
311.353
287.63
257.783
230.974
209.574
192.418
178.281
166.256
155.738
146.364
137.917
130.255
123.27
116.874
110.967
104.961
99.7721
94.9459
90.4515
86.2585
82.3396
78.6705
75.2312
72.0115
69.0452
66.6452
346.328
338.594
329.924
319.182
304.959
286.577
265.587
244.377
224.675
206.939
191.196
177.256
164.863
153.79
143.849
134.886
126.778
119.419
112.724
106.531
100.874
95.6712
90.8675
86.4197
82.2912
78.4501
74.8707
71.5363
68.4721
65.9808
345.965
337.366
327.771
316.473
302.719
286.218
267.784
248.666
230.117
212.773
196.872
182.449
169.426
157.676
147.07
137.484
128.805
120.932
113.775
107.226
101.24
95.7534
90.7104
86.0627
81.7689
77.7926
74.1032
70.6793
67.5359
64.9564
345.653
336.262
325.785
313.809
299.968
284.201
266.997
249.158
231.535
214.702
198.975
184.481
171.231
159.174
148.226
138.294
129.282
121.099
113.657
106.87
100.672
95.0025
89.804
85.0269
80.6273
76.566
72.8097
69.333
66.1397
63.48
345.382
335.192
323.74
310.869
296.514
280.777
264.043
246.871
229.862
213.486
198.04
183.678
170.447
158.329
147.276
137.217
128.071
119.754
112.187
105.293
99.0017
93.2533
87.9906
83.1635
78.7271
74.6409
70.8703
67.3868
64.1828
61.4544
345.139
334.032
321.342
307.227
291.927
275.709
258.927
242
225.357
209.351
194.222
180.112
167.067
155.078
144.114
134.117
125.013
116.728
109.188
102.32
96.0562
90.3376
85.1078
80.317
75.9206
71.878
68.154
64.7183
61.5539
58.7714
344.909
332.583
318.128
302.214
285.471
268.336
251.145
234.196
217.771
202.1
187.344
173.602
160.894
149.211
138.521
128.767
119.881
111.793
104.433
97.7301
91.6221
86.0496
80.9582
76.2993
72.0292
68.1078
64.5009
61.1761
58.116
55.2992
344.679
330.459
313.215
294.62
275.829
257.403
239.593
222.528
206.321
191.064
176.819
163.615
151.442
140.275
130.069
120.763
112.291
104.584
97.5743
91.1962
85.3886
80.0952
75.2636
70.8471
66.8042
63.0953
59.6894
56.549
53.6794
50.8573
344.419
326.689
304.605
281.969
260.479
240.565
222.186
205.182
189.441
174.876
161.44
149.081
137.752
127.398
117.959
109.369
101.561
94.4678
88.0242
82.1681
76.8421
71.9934
67.573
63.5372
59.8476
56.4655
53.368
50.4998
47.9396
45.163
343.969
318.154
286.992
258.561
234.1
213.119
194.824
178.6
164.028
150.815
138.799
127.855
117.892
108.83
100.599
93.129
86.3542
80.2117
74.6419
69.5885
64.9999
60.829
57.0321
53.5702
50.4107
47.5136
44.8783
42.3953
40.3155
37.6893
341.907
291.561
243.887
209.427
183.906
164.239
148.243
134.742
123.012
112.61
103.288
94.8838
87.2911
80.4186
74.1946
68.5632
63.4705
58.866
54.7013
50.9322
47.517
44.4196
41.6046
39.0421
36.7108
34.561
32.653
30.7387
29.3906
27.1764
317.06
174.85
118.107
91.0699
75.5326
65.4073
58.0149
52.1804
47.3231
43.13
39.4346
36.1396
33.1833
30.5281
28.1383
25.9815
24.0333
22.273
20.682
19.2424
17.9401
16.7567
15.6889
14.7031
13.8351
12.9845
12.3111
11.5213
11.0379
10.1865
347.642
343.222
338.242
332.011
298.87
22.1659
114.851
128.099
131.306
130.718
128.218
124.78
120.926
116.915
112.871
108.844
104.865
100.556
96.4121
92.4466
88.6556
85.0355
81.5824
78.2908
75.1574
72.1862
69.4249
67.1924
347.482
342.629
337.135
331.335
305.705
99.4492
58.1134
134.58
139.526
138.923
136.167
132.301
127.918
123.361
118.81
114.344
109.985
105.843
101.417
97.073
92.9478
89.0285
85.3051
81.7687
78.41
75.2224
72.2073
69.4104
67.1503
347.197
341.598
335.273
329.493
310.498
262.269
195.635
177.807
170.163
162.102
154.729
147.828
141.206
134.852
128.806
123.089
117.697
112.601
107.848
102.897
98.2132
93.81
89.6644
85.7572
82.0714
78.5917
75.3061
72.2116
69.3495
67.0378
346.845
340.361
333.059
322.975
311.612
285.585
250.729
221.244
200.557
184.736
172.011
161.258
151.803
143.296
135.557
128.478
121.975
115.974
110.356
104.631
99.5414
94.8012
90.3774
86.2418
82.3688
78.7362
75.3265
72.1305
69.1843
66.8036
346.48
339.119
330.867
320.41
305.92
290.645
266.463
242.28
220.944
202.748
187.234
173.836
162.086
151.646
142.285
133.84
126.183
119.214
112.825
106.228
100.739
95.6577
90.9493
86.5776
82.5104
78.7186
75.1783
71.8752
68.8386
66.3786
346.136
337.968
328.86
317.934
304.151
287.043
267.727
247.841
228.784
211.209
195.302
181.017
168.204
156.694
146.329
136.97
128.499
120.813
113.827
107.385
101.514
96.1269
91.165
86.5828
82.3409
78.405
74.7464
71.3461
68.2253
65.6832
345.828
336.922
327.024
315.565
301.963
286.035
268.395
250.064
232.036
214.944
199.096
184.586
171.392
159.43
148.595
138.78
129.881
121.803
114.457
107.74
101.605
95.9888
90.8325
86.0874
81.7103
77.6633
73.9144
70.4403
67.2531
64.6315
345.556
335.942
325.242
313.119
299.304
283.786
266.984
249.585
232.313
215.703
200.081
185.6
172.298
160.146
149.081
139.021
129.88
121.57
114.009
107.113
100.816
95.0582
89.7818
84.9366
80.4782
76.3663
72.5671
69.0539
65.8282
63.1343
345.313
334.957
323.33
310.323
295.927
280.279
263.737
246.806
230.018
213.807
198.461
184.144
170.914
158.765
147.66
137.536
128.318
119.929
112.291
105.329
98.9753
93.17
87.8563
82.9838
78.5078
74.3873
70.5873
67.0788
63.8522
61.0966
345.089
333.856
321.022
306.777
291.4
275.184
258.478
241.673
225.161
209.267
194.221
180.162
167.14
155.153
144.174
134.15
125.013
116.692
109.113
102.206
95.9064
90.1538
84.8929
80.0741
75.6529
71.5886
67.846
64.3943
61.2156
58.4121
344.874
332.451
317.873
301.833
284.991
267.808
250.624
233.726
217.372
201.774
187.082
173.388
160.713
149.049
138.366
128.609
119.715
111.614
104.237
97.5173
91.3915
85.8016
80.6937
76.0196
71.7358
67.8022
64.1848
60.8509
57.7832
54.9507
344.655
330.36
313.009
294.292
275.39
256.886
239.042
221.984
205.811
190.6
176.403
163.243
151.108
139.969
129.783
120.49
112.026
104.321
97.3109
90.9295
85.1171
79.8178
74.9801
70.5574
66.5086
62.7943
59.3837
56.239
53.3669
50.5336
344.404
326.617
304.438
281.685
260.078
240.07
221.635
204.613
188.883
174.348
160.95
148.633
137.343
127.024
117.613
109.046
101.256
94.1756
87.741
81.8908
76.5683
71.7214
67.3015
63.2653
59.5748
56.1916
53.0931
50.2233
47.6643
44.8799
343.961
318.104
286.86
258.317
233.739
212.662
194.302
178.05
163.478
150.288
138.307
127.404
117.481
108.457
100.259
92.8173
86.0656
79.9416
74.3861
69.3436
64.7629
60.5977
56.8046
53.3453
50.1875
47.2912
44.6569
42.1729
40.0964
37.4646
341.905
291.531
243.784
209.228
183.606
163.856
147.803
134.277
122.549
112.167
102.878
94.5119
86.9571
80.1217
73.9311
68.3282
63.2592
58.6735
54.5236
50.7658
47.3588
44.2675
41.4566
38.8967
36.5673
34.4179
32.5115
30.5947
29.251
27.0313
317.059
174.837
118.057
90.9774
75.3973
65.2381
57.823
51.9796
47.1249
42.9429
39.2638
35.9875
33.05
30.4111
28.0362
25.8924
23.9551
22.2038
20.6199
19.1858
17.8877
16.7072
15.6417
14.657
13.7904
12.9393
12.2679
11.4749
10.9961
10.1396
347.069
341.125
334.394
328.077
311.389
278.865
229.957
208.59
191.048
177.288
166.029
156.341
147.686
139.807
132.58
125.927
119.783
114.086
108.759
103.224
98.4259
93.9258
89.7023
85.7331
81.9984
78.4808
75.1659
72.0483
69.1667
66.8354
346.953
340.725
333.718
327.462
311.643
283.221
241.357
217.353
197.814
182.608
170.232
159.686
150.372
141.977
134.336
127.345
120.922
114.994
109.477
103.859
98.9194
94.3017
89.9809
85.9316
82.1312
78.5597
75.2007
72.0469
69.1354
66.7802
346.744
340.007
332.421
322.188
311.378
287.646
257.794
230.966
209.544
192.385
178.246
166.221
155.707
146.338
137.896
130.239
123.258
116.863
110.959
104.955
99.7667
94.9414
90.4477
86.2552
82.3368
78.6681
75.2291
72.0097
69.0435
66.6437
346.48
339.119
330.867
320.412
305.924
290.648
266.466
242.279
220.937
202.737
187.221
173.823
162.074
151.636
142.277
133.833
126.178
119.209
112.821
106.225
100.736
95.6554
90.9473
86.5759
82.509
78.7174
75.1772
71.8742
68.8377
66.3778
346.199
338.187
329.256
318.472
304.747
291.701
271.154
249.695
229.437
211.181
195.007
180.707
168.011
156.674
146.498
137.324
129.024
121.491
114.628
107.353
101.561
96.2202
91.2916
86.7357
82.5147
78.595
74.9489
71.5583
68.4467
65.9179
345.926
337.279
327.685
316.489
302.987
286.848
268.905
250.244
231.96
214.724
198.827
184.338
171.207
159.328
148.584
138.857
130.04
122.037
114.766
108.078
101.991
96.4149
91.291
86.5706
82.2119
78.1779
74.4377
70.9692
67.7889
65.1882
345.673
336.411
326.153
314.457
300.921
285.444
268.507
250.896
233.413
216.641
200.916
186.385
173.071
160.933
149.894
139.867
130.759
122.48
114.949
108.067
101.784
96.0368
90.7663
85.9225
81.461
77.3426
73.5337
70.0093
66.7772
64.1071
345.442
335.559
324.576
312.237
298.376
283.035
266.583
249.592
232.672
216.312
200.828
186.394
173.07
160.848
149.684
139.51
130.249
121.821
114.146
107.144
100.752
94.9083
89.5557
84.644
80.1281
75.9673
72.1268
68.5788
65.3213
62.5884
345.229
334.665
322.806
309.594
295.089
279.47
263.077
246.36
229.788
213.751
198.525
184.274
171.066
158.905
147.763
137.588
128.31
119.858
112.156
105.133
98.7233
92.8661
87.5056
82.592
78.0801
73.9289
70.103
66.5727
63.326
60.5399
345.028
333.63
320.599
306.157
290.634
274.361
257.685
240.974
224.581
208.802
193.85
179.856
166.875
154.907
143.929
133.893
124.736
116.389
108.782
101.846
95.5183
89.7392
84.4539
79.6133
75.1731
71.0924
67.3361
63.8732
60.6842
57.858
344.829
332.275
317.524
301.295
284.285
266.993
249.769
232.888
216.589
201.061
186.438
172.804
160.178
148.549
137.888
128.146
119.257
111.157
103.776
97.0502
90.9169
85.319
80.2032
75.5217
71.2314
67.2923
63.6705
60.3333
57.2635
54.4151
344.624
330.224
312.72
293.82
274.74
256.096
238.168
221.081
204.921
189.75
175.604
162.498
150.413
139.32
129.171
119.908
111.466
103.78
96.7822
90.4103
84.6047
79.3104
74.4762
70.0564
66.0098
62.2976
58.8892
55.7466
52.8785
50.0352
344.384
326.516
304.202
281.274
259.484
239.321
220.78
203.704
187.963
173.449
160.092
147.825
136.587
126.318
116.952
108.425
100.669
93.617
87.2059
81.375
76.0683
71.2343
66.8251
62.7979
59.1151
55.7384
52.6461
49.781
47.2302
44.4403
343.95
318.035
286.671
257.965
233.213
211.983
193.512
177.198
162.606
149.43
137.485
126.629
116.758
107.787
99.6381
92.2405
85.5276
79.4369
73.9096
68.8907
64.3296
60.1807
56.4012
52.9532
49.805
46.9166
44.2901
41.8103
39.7451
37.1084
341.901
291.49
243.643
208.952
183.184
163.306
147.16
133.583
121.84
111.472
102.216
93.8937
86.3861
79.5998
73.4555
67.8943
62.8616
58.307
54.1831
50.4467
47.0574
43.9804
41.1813
38.6308
36.3095
34.1657
32.2668
30.3493
29.0227
26.7867
317.059
174.82
117.992
90.8572
75.2177
65.0086
57.5568
51.6939
46.8349
42.6611
38.9984
35.7429
32.8278
30.2097
27.8546
25.7288
23.8076
22.0699
20.4975
19.0729
17.7826
16.6084
15.5481
14.5672
13.7044
12.8543
12.1904
11.3784
10.9826
9.99808
346.558
339.351
331.204
320.563
305.807
289.548
264.101
237.988
217.942
200.394
185.167
171.883
160.178
149.767
140.437
132.029
124.415
117.492
111.182
105.313
99.9327
94.9647
90.3598
86.0801
82.0928
78.3696
74.8882
71.6353
68.64
66.2068
346.477
339.083
330.754
320.061
305.593
290.153
265.924
240.499
220.557
202.887
187.431
173.879
161.906
151.243
141.685
133.072
125.277
118.196
111.746
105.76
100.28
95.2277
90.5517
86.2122
82.1747
78.4096
74.8934
71.6117
68.5921
66.1387
346.328
338.595
329.924
319.18
304.964
286.583
265.591
244.376
224.665
206.921
191.174
177.231
164.839
153.768
143.829
134.87
126.764
119.407
112.714
106.522
100.867
95.6649
90.862
86.415
82.2871
78.4465
74.8675
71.5335
68.4696
65.9784
346.136
337.968
328.86
317.934
304.153
287.046
267.729
247.84
228.778
211.199
195.29
181.003
168.191
156.682
146.317
136.96
128.49
120.805
113.821
107.38
101.509
96.1227
91.1614
86.5795
82.3381
78.4025
74.7442
71.3441
68.2235
65.6815
345.926
337.279
327.685
316.489
302.988
286.848
268.905
250.243
231.958
214.72
198.823
184.333
171.202
159.323
148.579
138.852
130.036
122.033
114.763
108.075
101.988
96.4129
91.2892
86.569
82.2105
78.1767
74.4366
70.9682
67.788
65.1874
345.715
336.573
326.462
314.907
301.458
285.971
268.971
251.272
233.707
216.876
201.119
186.575
173.264
161.137
150.115
140.104
131.012
122.75
115.234
108.358
102.083
96.3432
91.0775
86.2365
81.7761
77.6571
73.8464
70.3195
67.0864
64.425
345.512
335.862
325.188
313.166
299.552
284.334
267.898
250.853
233.852
217.41
201.857
187.372
174.011
161.765
150.584
140.398
131.126
122.689
115.005
107.991
101.586
95.7296
90.3635
85.4372
80.9057
76.7285
72.871
69.3062
66.0366
63.3165
345.32
335.128
323.797
311.152
297.13
281.836
265.605
248.925
232.307
216.185
200.858
186.504
173.201
160.953
149.731
139.482
130.137
121.621
113.861
106.78
100.315
94.4051
88.9941
84.0316
79.4725
75.2755
71.4053
67.833
64.5521
61.7794
345.136
334.322
322.163
308.658
293.94
278.243
261.902
245.325
228.924
213.048
197.947
183.782
170.624
158.483
147.337
137.141
127.833
119.345
111.606
104.545
98.0999
92.2101
86.8205
81.8815
77.3482
73.1795
69.3398
65.7987
62.5412
59.725
344.957
333.354
320.058
305.332
289.565
273.136
256.406
239.725
223.412
207.731
192.873
178.958
166.039
154.115
143.165
133.146
123.996
115.649
108.038
101.096
94.7615
88.9752
83.6832
78.837
74.3925
70.3091
66.5517
63.089
59.9001
57.0528
344.776
332.052
317.064
300.558
283.285
265.79
248.445
231.523
215.241
199.765
185.211
171.646
159.085
147.515
136.903
127.2
118.344
110.269
102.909
96.1995
90.0797
84.4933
79.3875
74.7151
70.4334
66.5028
62.8896
59.5608
56.4999
53.6389
344.584
330.047
312.329
293.161
273.808
254.934
236.846
219.673
203.49
188.34
174.243
161.198
149.181
138.154
128.066
118.858
110.465
102.821
95.8606
89.5206
83.7428
78.4728
73.6601
69.2595
65.2304
61.5343
58.1411
55.0122
52.1597
49.3114
344.358
326.38
303.875
280.692
258.631
238.229
219.508
202.324
186.537
172.027
158.706
146.496
135.325
125.126
115.829
107.366
99.668
92.6684
86.3037
80.5137
75.243
70.4407
66.0595
62.0572
58.3967
55.0401
51.9665
49.1172
46.586
43.7976
343.935
317.941
286.409
257.471
232.465
211.006
192.359
175.935
161.29
148.112
136.198
125.395
115.59
106.689
98.6096
91.2781
84.6262
78.5904
73.1121
68.1363
63.6132
59.4976
55.7473
52.3249
49.1997
46.3312
43.7238
41.2584
39.2132
36.5827
341.896
291.435
243.453
208.577
182.604
162.542
146.252
132.586
120.8
110.433
101.205
92.9305
85.4797
78.7555
72.6731
67.1705
62.1913
57.6845
53.6027
49.903
46.5455
43.496
40.7207
38.1907
35.8878
33.7588
31.8755
29.9674
28.6561
26.4281
317.059
174.801
117.913
90.7061
74.9869
64.7069
57.1993
51.3014
46.4269
42.2545
38.6054
35.371
32.4812
29.8885
27.5586
25.4569
23.5578
21.8401
20.2853
18.8759
17.5989
16.4358
15.3854
14.4125
13.5573
12.7129
12.0546
11.2477
10.8556
9.87379
346.125
337.881
328.626
317.462
303.478
286.06
266.523
246.199
227.034
209.463
193.601
179.376
166.635
155.204
144.924
135.653
127.27
119.669
112.758
106.426
100.631
95.3104
90.4108
85.8862
81.6974
77.8099
74.1953
70.8344
67.7453
65.2141
346.069
337.7
328.326
317.115
303.234
286.168
267.085
247.171
228.218
210.712
194.82
180.511
167.66
156.109
145.708
136.322
127.831
120.132
113.132
106.723
100.859
95.4793
90.5286
85.9602
81.7341
77.8151
74.174
70.7908
67.6825
65.1346
345.965
337.366
327.769
316.468
302.719
286.218
267.783
248.662
230.108
212.758
196.853
182.428
169.404
157.656
147.051
137.467
128.79
120.919
113.763
107.216
101.231
95.7457
90.7036
86.0567
81.7636
77.7879
74.099
70.6755
67.5325
64.9533
345.828
336.922
327.024
315.563
301.963
286.036
268.394
250.061
232.03
214.935
199.084
184.573
171.378
159.416
148.582
138.768
129.87
121.793
114.449
107.733
101.599
95.983
90.8274
86.0828
81.7062
77.6596
73.9111
70.4374
67.2505
64.6291
345.673
336.411
326.153
314.456
300.921
285.444
268.506
250.894
233.409
216.636
200.91
186.377
173.063
160.925
149.887
139.86
130.752
122.474
114.944
108.062
101.78
96.0331
90.763
85.9195
81.4584
77.3402
73.5316
70.0074
66.7754
64.1055
345.512
335.862
325.187
313.166
299.552
284.334
267.898
250.852
233.851
217.408
201.855
187.368
174.008
161.761
150.58
140.395
131.123
122.686
115.003
107.989
101.584
95.7278
90.3619
85.4357
80.9044
76.7274
72.87
69.3053
66.0357
63.3157
345.351
335.279
324.118
311.654
297.785
282.593
266.411
249.738
233.103
216.952
201.592
187.206
173.872
161.598
150.353
140.083
130.719
122.185
114.407
107.309
100.828
94.9022
89.476
84.4988
79.9252
75.7142
71.8303
68.2448
64.9537
62.186
345.192
334.647
322.886
309.815
295.478
280.056
263.877
247.366
230.964
215.042
199.874
185.63
172.392
160.172
148.95
138.682
129.307
120.755
112.956
105.839
99.34
93.3996
87.9621
82.9777
78.4013
74.1916
70.313
66.7354
63.4472
60.6376
345.036
333.922
321.375
307.455
292.383
276.459
260.035
243.492
227.191
211.44
196.462
182.4
169.325
157.244
146.139
135.969
126.677
118.197
110.461
103.401
96.956
91.0661
85.677
80.7398
76.2098
72.0461
68.2131
64.68
61.428
58.5856
344.877
333.018
319.367
304.235
288.088
271.369
254.469
237.726
221.432
205.818
191.049
177.227
164.396
152.551
141.669
131.706
122.603
114.297
106.72
99.808
93.499
87.7362
82.4659
77.6401
73.2153
69.1512
65.4128
61.9687
58.7966
55.9334
344.713
331.771
316.455
299.552
281.884
264.058
246.484
229.438
213.12
197.668
183.177
169.694
157.222
145.741
135.214
125.589
116.803
108.79
101.487
94.8275
88.753
83.2076
78.1392
73.5012
69.2515
65.3507
61.7657
58.4635
55.4288
52.5618
344.537
329.815
311.795
292.242
272.487
253.261
234.91
217.575
201.32
186.167
172.114
159.142
147.214
136.282
126.289
117.172
108.864
101.298
94.4082
88.1326
82.413
77.1958
72.431
68.0741
64.0851
60.4258
57.0669
53.9691
51.1498
48.3048
344.324
326.198
303.418
279.868
257.414
236.657
217.662
200.299
184.421
169.893
156.605
144.461
133.379
123.277
114.08
105.714
98.1079
91.1939
84.9078
79.1892
73.9833
69.2395
64.9114
60.957
57.3402
54.0231
50.9864
48.1691
45.6745
42.8978
343.915
317.811
286.04
256.769
231.402
209.613
190.706
174.108
159.37
146.17
134.283
123.543
113.821
105.013
97.0311
89.7952
83.2341
77.283
71.8822
66.9769
62.5174
58.4589
54.7602
51.384
48.3006
45.4694
42.8974
40.4604
38.4502
35.8379
341.889
291.36
243.191
208.057
181.8
161.476
144.979
131.174
119.314
108.929
99.7249
91.5026
84.1211
77.4761
71.4759
66.0539
61.151
56.7146
52.6968
49.0547
45.7486
42.7449
40.0106
37.5166
35.2468
33.1457
31.2909
29.4025
28.1173
25.9097
317.058
174.778
117.815
90.5131
74.6863
64.3074
56.7191
50.7662
45.8615
41.6817
38.042
34.8288
31.9674
29.4055
27.1077
25.0379
23.1691
21.4795
19.9503
18.564
17.3075
16.1626
15.1286
14.1696
13.3277
12.4937
11.8462
11.0482
10.6627
9.69162
345.765
336.619
326.378
314.529
300.606
284.446
266.68
248.225
230.154
213.066
197.245
182.772
169.621
157.709
146.93
137.176
128.34
120.325
113.041
106.397
100.328
94.7725
89.6744
84.985
80.6612
76.6649
72.9641
69.5345
66.3825
63.7624
345.726
336.495
326.172
314.281
300.396
284.387
266.835
248.601
230.689
213.687
197.893
183.407
170.216
158.249
147.408
137.588
128.689
120.613
113.272
106.577
100.462
94.8658
89.7319
85.0112
80.6605
76.6411
72.9206
69.4742
66.3076
63.6738
345.653
336.261
325.782
313.804
299.965
284.198
266.993
249.152
231.526
214.689
198.959
184.463
171.212
159.155
148.208
138.277
129.267
121.085
113.645
106.859
100.662
94.9938
89.7962
85.0199
80.6211
76.5604
72.8047
69.3284
66.1355
63.4761
345.556
335.942
325.24
313.117
299.302
283.784
266.982
249.581
232.306
215.694
200.069
185.586
172.284
160.132
149.067
139.009
129.868
121.56
114
107.104
100.808
95.0512
89.7755
84.931
80.4731
76.3618
72.563
69.0502
65.8248
63.1311
345.442
335.559
324.575
312.236
298.374
283.034
266.581
249.589
232.668
216.305
200.82
186.385
173.061
160.839
149.675
139.502
130.241
121.813
114.139
107.138
100.746
94.9032
89.5511
84.6399
80.1243
75.9639
72.1237
68.576
65.3188
62.586
345.32
335.127
323.797
311.152
297.129
281.835
265.604
248.922
232.305
216.182
200.854
186.5
173.195
160.947
149.726
139.477
130.132
121.617
113.857
106.776
100.311
94.4019
88.9912
84.029
79.4701
75.2734
71.4034
67.8312
64.5504
61.7778
345.192
334.647
322.886
309.815
295.478
280.055
263.876
247.365
230.962
215.041
199.872
185.628
172.389
160.17
148.948
138.68
129.305
120.753
112.954
105.837
99.3384
93.3981
87.9608
82.9765
78.4002
74.1906
70.312
66.7345
63.4464
60.6369
345.062
334.1
321.785
308.119
293.271
277.512
261.191
244.694
228.401
212.629
197.614
183.507
170.382
158.252
147.097
136.881
127.544
119.021
111.246
104.149
97.6684
91.7456
86.3257
81.3594
76.8021
72.6127
68.7555
65.1999
61.9283
59.0881
344.928
333.445
320.381
305.876
290.263
273.929
257.261
240.623
224.34
208.673
193.811
179.874
166.92
154.949
143.941
133.858
124.641
116.226
108.548
101.541
95.1432
89.2974
83.9496
79.0514
74.5589
70.4315
66.6338
63.1348
59.9121
57.0503
344.788
332.602
318.463
302.755
286.045
268.865
251.65
234.738
218.393
202.812
188.128
174.419
161.71
149.987
139.224
129.372
120.371
112.157
104.665
97.83
91.5918
85.894
80.6837
75.9138
71.5412
67.5262
63.8343
60.434
57.3026
54.4316
344.64
331.408
315.633
298.161
279.916
261.597
243.662
226.395
209.98
194.526
180.096
166.713
154.363
143.013
132.619
123.121
114.456
106.556
99.3562
92.7924
86.8056
81.3407
76.3463
71.7766
67.5901
63.748
60.2178
56.9662
53.9817
51.1185
344.478
329.505
311.053
290.943
270.609
250.874
232.136
214.551
198.172
182.993
168.985
156.105
144.298
133.502
123.649
114.671
106.496
99.0545
92.2811
86.1127
80.4917
75.3649
70.6831
66.4022
62.4831
58.8882
55.5891
52.5453
49.7828
46.9532
344.281
325.945
302.766
278.682
255.665
234.405
215.022
197.402
181.387
166.821
153.568
141.512
130.547
120.581
111.527
103.303
95.8341
89.0497
82.8844
77.2774
72.174
67.524
63.2816
59.4054
55.8604
52.6087
49.6329
46.8687
44.4332
41.6826
343.889
317.627
285.502
255.749
229.867
207.617
188.35
171.511