/*--------------------------------*- C++ -*----------------------------------*\
  =========                 |
  \\      /  F ield         | OpenFOAM: The Open Source CFD Toolbox
   \\    /   O peration     | Website:  https://openfoam.org
    \\  /    A nd           | Version:  10
     \\/     M anipulation  |
\*---------------------------------------------------------------------------*/
FoamFile
{
    format      ascii;
    class       volScalarField;
    location    "400";
    object      nut;
}
// * * * * * * * * * * * * * * * * * * * * * * * * * * * * * * * * * * * * * //

dimensions      [0 2 -1 0 0 0 0];

internalField   nonuniform List<scalar> 
27507
(
624.521
315.432
131.588
40.005
8.0822
15.1743
22.8483
31.8133
41.488
51.1598
60.2815
68.5189
75.7098
82.6371
89.0415
92.3642
94.9238
96.8563
98.2439
99.1644
99.69
99.8869
99.8263
99.632
100.01
625.906
381.034
159.384
53.5398
7.36423
16.1854
25.9316
36.0002
45.9385
55.3791
64.0381
71.7392
78.3984
85.195
91.5746
94.414
96.5887
98.1854
99.2844
99.9598
100.279
100.302
100.096
99.7798
100.059
627.517
511.047
230.96
87.1209
0.225997
10.9144
23.7204
36.034
47.1219
56.9305
65.5339
73.0076
79.4206
84.8274
90.6524
96.1731
98.157
99.5937
100.559
101.121
101.343
101.28
100.984
100.509
99.9661
100.06
630.019
542.276
345.632
166.943
57.8708
0.402071
0.418597
15.1512
29.6757
43.1305
54.9509
64.9265
73.184
79.9731
85.5386
90.0786
93.7387
97.9573
101.984
102.84
103.307
103.446
103.308
102.938
102.377
101.661
100.833
99.9899
99.8368
633.12
555.859
448.722
308.794
172.968
72.1621
40.1463
52.0342
61.0771
70.2667
78.6113
85.7143
91.4689
95.9636
99.3835
101.928
103.77
105.048
105.853
107.93
107.55
106.956
106.192
105.287
104.269
103.16
101.981
100.763
99.5852
99.1518
635.76
567.77
480.152
374.799
273.079
182.709
135.177
133.98
127.756
124.946
123.521
122.634
121.848
120.968
119.933
118.746
117.432
116.028
114.594
112.991
111.38
109.751
108.109
106.463
104.819
103.181
101.555
99.9583
98.4485
97.7311
637.08
574.519
499.295
415.325
333.276
266.305
220.001
189.544
172.168
160.492
152.177
145.824
140.593
136.079
132.055
128.391
125.008
121.857
118.916
116.113
113.463
110.952
108.562
106.281
104.097
102.003
99.9924
98.0698
96.2679
95.2894
636.4
573.989
504.299
432.355
363.943
305.384
260.012
226.529
202.948
185.683
172.454
161.756
153.097
145.759
139.409
133.821
128.84
124.358
120.293
116.565
113.129
109.95
106.995
104.237
101.652
99.2214
96.9279
94.7695
92.745
91.5503
632.898
564.096
493.708
427.286
367.577
316.475
274.87
242.044
216.715
196.957
181.279
168.445
157.613
148.592
140.838
134.076
128.113
122.804
118.043
113.738
109.823
106.243
102.954
99.9194
97.1065
94.4897
92.0445
89.7667
87.6126
86.2634
625.106
541.627
465.381
400.927
347.319
302.943
266.544
236.965
213.095
193.732
177.884
164.782
153.439
143.867
135.689
128.55
122.264
116.685
111.701
107.218
103.163
99.4769
96.1086
93.0181
90.1695
87.5358
85.0854
82.822
80.6476
79.2176
609.946
501.354
416.384
353.477
305.983
268.807
238.829
214.263
193.971
177.061
162.919
150.97
140.504
131.58
123.871
117.108
111.134
105.824
101.077
96.809
92.9527
89.4521
86.2594
83.3367
80.6479
78.171
75.8654
73.758
71.683
70.2531
580.264
435.356
344.323
286.765
247.614
218.86
196.28
177.834
162.415
149.257
138.085
128.259
119.756
112.34
105.821
100.056
94.9312
90.3525
86.243
82.5384
79.1843
76.1362
73.3529
70.806
68.459
66.3046
64.2848
62.4708
60.6205
59.2755
518.334
334.901
250.713
206.061
178.507
159.406
144.626
132.595
122.457
113.487
105.717
98.8443
92.7387
87.3069
82.4599
78.1214
74.2262
70.7187
67.5503
64.6793
62.0684
59.6885
57.5068
55.5099
53.6577
51.97
50.3569
48.9539
47.4567
46.2823
383.652
202.105
147.166
122.175
107.616
97.9423
90.1871
83.9203
78.4812
73.5777
69.1599
65.1576
61.5283
58.2299
55.2301
52.5031
50.024
47.7689
45.7143
43.8398
42.1236
40.5529
39.1018
37.7762
36.5269
35.4095
34.2989
33.3752
32.3671
31.4408
151.873
75.068
58.1213
50.5019
45.8623
42.7676
40.2079
37.9836
35.9735
34.1111
32.3792
30.7674
29.2764
27.8814
26.5792
25.3746
24.265
23.245
22.3071
21.4448
20.6483
19.9164
19.2315
18.6097
18.0073
17.4828
16.9424
16.4755
16.0859
15.4537
12.4958
9.27997
7.62842
6.70065
6.10474
5.683
5.35395
5.07867
4.837
4.61772
4.4151
4.22604
4.04885
3.88292
3.72728
3.58108
3.44379
3.31495
3.19414
3.08085
2.97473
2.87498
2.78197
2.69331
2.61285
2.53125
2.46613
2.38139
2.34955
2.2284
625.896
381.182
159.541
54.1463
7.02949
15.9732
25.8152
35.9355
45.9008
55.3566
64.0244
71.7307
78.393
85.1908
91.5696
94.4101
96.5855
98.1829
99.2823
99.9581
100.277
100.301
100.095
99.7789
100.058
626.945
443.74
188.726
64.869
7.90568
18.4582
29.5419
40.24
50.2503
59.413
67.6212
74.8164
80.9762
87.6328
93.9906
96.3791
98.1721
99.4433
100.266
100.707
100.83
100.688
100.343
99.9099
100.094
628.518
536.557
261.326
104.699
1.99076
1.08627
14.4779
28.0263
40.4921
51.4821
61.0152
69.2217
76.2425
82.1915
87.1561
92.8508
98.3483
99.9226
101.012
101.682
101.995
102.005
101.764
101.317
100.716
100.066
100.072
631.006
546.532
398.054
190.05
79.3717
1.74166
2.51637
21.0543
35.448
48.4371
59.7127
69.158
76.9128
83.224
88.3382
92.4592
95.7379
99.8463
103.827
104.337
104.509
104.395
104.042
103.49
102.775
101.927
100.988
100.05
99.8186
633.928
559.41
458.634
335.586
193.287
89.5686
53.0419
63.6866
69.9672
77.5908
84.7482
90.8854
95.8433
99.6726
102.528
104.585
106.004
106.913
107.397
109.417
108.757
107.922
106.951
105.869
104.7
103.462
102.173
100.862
99.6027
99.1017
636.326
570.173
485.975
385.981
287.683
196.995
147.981
146.074
137.111
132.485
129.69
127.74
126.097
124.516
122.901
121.227
119.5
117.743
116.004
114.14
112.308
110.488
108.684
106.897
105.132
103.391
101.676
100.002
98.4259
97.6518
637.435
575.985
502.61
421.352
341.727
276.132
229.5
197.959
179.038
166.264
156.814
149.671
143.79
138.741
134.275
130.24
126.544
123.126
119.957
116.959
114.141
111.486
108.971
106.582
104.305
102.131
100.05
98.0672
96.2123
95.1874
636.598
574.794
506.053
435.451
368.4
310.726
265.491
231.686
207.435
189.491
175.694
164.431
155.335
147.63
140.973
135.125
129.924
125.253
121.024
117.154
113.597
110.312
107.266
104.428
101.773
99.2822
96.9361
94.7319
92.6666
91.4349
632.993
564.475
494.527
428.733
369.692
319.108
277.725
244.878
219.321
199.261
183.267
170.177
159.066
149.816
141.868
134.938
128.83
123.395
118.523
114.123
110.123
106.47
103.117
100.026
97.1631
94.5027
92.0191
89.7077
87.523
86.1449
625.138
541.753
465.662
401.451
348.156
304.062
267.844
238.333
214.425
194.963
178.988
165.757
154.301
144.596
136.311
129.075
122.702
117.047
111.994
107.45
103.341
99.6061
96.1948
93.066
90.1834
87.5193
85.0419
82.7547
80.5583
79.1061
609.946
501.353
416.403
353.559
306.176
269.131
239.27
214.784
194.527
177.615
163.443
151.456
140.946
131.968
124.208
117.397
111.378
106.026
101.239
96.9359
93.0469
89.5165
86.2967
83.3495
80.6383
78.1413
75.8174
73.6937
71.6036
70.157
580.252
435.31
344.248
286.684
247.557
218.852
196.331
177.943
162.566
149.435
138.277
128.45
119.945
112.514
105.978
100.195
95.0504
90.4519
86.3231
82.5998
79.2278
76.1627
73.3635
70.8018
68.441
66.274
64.2423
62.4177
60.5574
59.2004
518.322
334.855
250.635
205.96
178.397
159.307
144.549
132.552
122.437
113.495
105.752
98.891
92.7936
87.3649
82.5172
78.1753
74.2746
70.7602
67.584
64.7047
62.0852
59.6967
57.5065
55.5014
53.6412
51.9462
50.3258
48.9165
47.413
46.2308
383.646
202.08
147.119
122.11
107.537
97.8609
90.1082
83.8551
78.4303
73.5424
69.1403
65.1499
61.5294
58.2377
55.2422
52.5174
50.0387
47.7826
45.726
43.8488
42.1291
40.5548
39.0998
37.7702
36.5169
35.3959
34.281
33.3548
32.3411
31.4137
151.872
75.0614
58.1063
50.4792
45.8316
42.733
40.1723
37.9506
35.9449
34.0878
32.3616
30.7549
29.2677
27.8773
26.5786
25.3763
24.2682
23.2489
22.3109
21.4482
20.6508
19.9179
19.2317
18.6086
18.0046
17.4791
16.9362
16.4705
16.0725
15.4487
12.4958
9.27982
7.62778
6.69938
6.10276
5.68045
5.351
5.07555
4.83391
4.61483
4.4125
4.22379
4.04695
3.88132
3.72595
3.57999
3.4429
3.31421
3.19351
3.08028
2.9742
2.87445
2.78143
2.69272
2.61222
2.53057
2.46525
2.38091
2.34768
2.22872
627.503
511.155
231.326
88.9213
0.216306
10.5654
23.4659
35.8448
46.9884
56.8394
65.4732
72.9672
79.3937
84.8089
90.6376
96.1602
98.1466
99.5852
100.551
101.115
101.338
101.276
100.98
100.506
99.9635
100.058
628.512
536.546
261.594
104.981
1.14117
1.07238
14.5371
27.9455
40.3921
51.4018
60.9575
69.1819
76.2155
82.1732
87.1434
92.8409
98.3401
99.916
101.007
101.678
101.991
102.002
101.762
101.315
100.714
100.064
100.07
630.425
545.178
342.402
156.823
45.9651
12.3365
26.9944
40.5272
52.4623
62.6329
71.1462
78.2133
84.0541
88.8522
92.7435
97.5563
102.25
103.086
103.542
103.67
103.523
103.144
102.574
101.849
101.013
100.164
100.006
632.766
554.186
443.449
268.51
141.275
41.4668
18.6401
25.6458
38.7582
51.1793
62.3045
71.8614
79.7627
86.1271
91.1735
95.1341
98.2091
100.551
103.883
107.129
107.01
106.64
106.063
105.315
104.426
103.425
102.335
101.19
100.077
99.6987
635.31
565.274
472.352
355.686
233.451
142.728
100.557
89.7899
90.3648
94.2139
98.5138
102.384
105.498
107.802
109.376
110.343
110.822
110.92
110.701
112.077
110.902
109.623
108.271
106.862
105.414
103.938
102.446
100.961
99.5522
98.9247
637.284
574.176
495.134
402.945
312.457
239.021
193.303
168.45
155.043
146.406
141.136
137.194
133.937
131.037
128.33
125.742
123.245
120.832
118.525
116.181
113.939
111.77
109.664
107.619
105.631
103.698
101.818
100.004
98.3039
97.4237
638.027
578.429
508.065
431.184
356.015
291.924
244.886
212.85
191.591
176.698
165.338
156.724
149.632
143.591
138.302
133.58
129.302
125.391
121.8
118.442
115.315
112.393
109.648
107.06
104.611
102.289
100.08
97.9862
96.0331
94.9216
636.919
576.108
508.944
440.595
375.944
319.705
274.807
240.737
215.456
196.341
181.466
169.319
159.373
150.996
143.775
137.451
131.845
126.825
122.295
118.166
114.384
110.906
107.69
104.706
101.924
99.3224
96.8799
94.5917
92.4508
91.15
633.132
565.049
495.816
431.081
373.216
323.544
282.601
249.796
223.896
203.332
186.781
173.247
161.656
151.971
143.677
136.445
130.072
124.407
119.335
114.759
110.607
106.82
103.349
100.154
97.201
94.4611
91.9075
89.5347
87.2938
85.8619
625.17
541.895
466.031
402.219
349.461
305.871
269.997
240.64
216.695
197.079
180.889
167.437
155.788
145.85
137.373
129.964
123.436
117.642
112.465
107.811
103.604
99.7821
96.293
93.0949
90.1506
87.4317
84.9055
82.5751
80.3384
78.8451
609.926
501.288
416.339
353.585
306.385
269.568
239.922
215.594
195.413
178.512
164.296
152.25
141.67
132.602
124.755
117.86
111.762
106.335
101.48
97.1135
93.1663
89.5829
86.3146
83.3234
80.5723
78.0392
75.6825
73.5297
71.4119
69.9346
580.217
435.187
344.053
286.461
247.365
218.741
196.324
178.044
162.747
149.677
138.541
128.728
120.223
112.772
106.209
100.395
95.2182
90.5864
86.4245
82.6688
79.2657
76.171
73.3438
70.7559
68.3707
66.1812
64.1284
62.2852
60.4067
59.0281
518.294
334.755
250.464
205.736
178.149
159.071
144.35
132.415
122.342
113.454
105.761
98.9255
92.847
87.4273
82.5814
78.2357
74.3274
70.8025
67.6137
64.7206
62.0866
59.6834
57.4785
55.4592
53.5852
51.8772
50.2439
48.824
47.3077
46.1141
383.634
202.03
147.026
121.976
107.373
97.6888
89.9371
83.7064
78.3066
73.4477
69.0747
65.1073
61.5047
58.2266
55.2404
52.521
50.0444
47.7877
45.7285
43.8469
42.1219
40.5415
39.0799
37.7437
36.4833
35.356
34.2335
33.3043
32.2749
31.3565
151.871
75.0492
58.0779
50.4354
45.7714
42.6638
40.0996
37.8814
35.8828
34.035
32.3189
30.7218
29.2418
27.8599
26.5678
25.3702
24.2652
23.2475
22.3099
21.4467
20.6482
19.9136
19.2253
18.5999
17.9934
17.4659
16.9186
16.4592
16.0179
15.4643
12.4958
9.27956
7.62663
6.69703
6.09904
5.67554
5.34521
5.0693
4.8276
4.60876
4.4069
4.21877
4.04254
3.87744
3.72258
3.57707
3.44035
3.31196
3.19148
3.07841
2.97242
2.87271
2.77967
2.69094
2.61026
2.5289
2.46186
2.38389
2.32445
2.24706
630
542.152
347.733
166.333
55.8463
0.178874
14.9891
29.4889
42.9209
54.7541
64.7635
73.0591
79.8814
85.4729
90.0317
93.7045
97.9305
101.962
102.822
103.292
103.433
103.297
102.93
102.37
101.655
100.828
99.9852
99.8327
630.99
546.445
398.809
191.411
79.4874
1.72284
1.74909
20.9784
35.333
48.2936
59.5659
69.0314
76.8135
83.15
88.2845
92.4205
95.7093
99.8243
103.809
104.323
104.497
104.385
104.034
103.483
102.769
101.922
100.984
100.046
99.8152
632.758
554.151
443.382
268.692
141.458
40.9365
18.5888
25.5404
38.6451
51.0944
62.231
71.7911
79.701
86.0772
91.1352
95.1055
98.1879
100.535
103.87
107.119
107.002
106.634
106.057
105.31
104.422
103.422
102.332
101.188
100.074
99.6967
634.871
563.199
466.465
343.417
213.309
122.25
70.058
63.7738
69.3484
76.8524
84.1059
90.4217
95.5788
99.596
102.61
104.794
106.309
107.285
109.296
111.234
110.296
109.219
108.036
106.77
105.441
104.065
102.658
101.242
99.8953
99.3214
636.928
572.157
488.873
389.019
290.893
197.046
148.663
127.769
120.315
118.422
118.362
118.784
119.121
119.157
118.849
118.235
117.372
116.323
115.12
115.352
113.503
111.643
109.79
107.954
106.14
104.352
102.594
100.881
99.2739
98.4771
638.374
578.768
505.763
422.942
341.056
272.986
225.462
195.766
177.361
164.981
156.149
149.547
144.129
139.458
135.287
131.48
127.958
124.674
121.62
118.648
115.871
113.242
110.742
108.357
106.078
103.894
101.8
99.8008
97.9383
96.9162
638.666
581.12
514.207
442.45
372.546
311.849
264.946
231.187
207.264
189.798
176.407
165.725
157.08
149.743
143.375
137.746
132.706
128.15
124.006
120.178
116.648
113.378
110.333
107.486
104.813
102.297
99.9221
97.6845
95.6025
94.3752
637.227
577.431
512.01
446.271
384.499
330.379
286.172
251.695
225.27
204.806
188.632
175.444
164.395
155.159
147.213
140.275
134.143
128.671
123.751
119.285
115.214
111.485
108.053
104.879
101.933
99.1884
96.6217
94.2255
91.986
90.5931
633.222
565.483
496.968
433.423
376.987
328.517
288.231
255.538
229.304
208.187
191.009
176.882
164.786
154.537
145.806
138.189
131.481
125.524
120.197
115.398
111.051
107.093
103.473
100.146
97.0778
94.2364
91.5939
89.1432
86.8299
85.3262
625.14
541.838
466.123
402.718
350.574
307.632
272.236
243.123
219.194
199.441
183.028
169.317
157.456
147.245
138.534
130.913
124.195
118.229
112.9
108.109
103.78
99.8486
96.2623
92.9776
89.9561
87.1686
84.5811
82.1969
79.9091
78.3611
609.847
501.033
415.99
353.282
306.27
269.732
240.366
216.262
196.212
179.361
165.124
153.021
142.379
133.218
125.273
118.282
112.091
106.577
101.64
97.1973
93.1802
89.5324
86.2052
83.1603
80.3603
77.783
75.386
73.1975
71.0453
69.5274
580.138
434.922
343.639
285.967
246.877
218.338
196.051
177.915
162.734
149.761
138.668
128.889
120.403
112.939
106.355
100.512
95.3013
90.6339
86.4355
82.6433
79.2045
76.0754
73.2154
70.5965
68.1822
65.9657
63.8876
62.0218
60.1217
58.7139
518.241
334.575
250.165
205.343
177.702
158.622
143.939
132.081
122.063
113.251
105.63
98.8364
92.7918
87.3926
82.557
78.2137
74.3016
70.7683
67.5679
64.661
62.0116
59.5923
57.3709
55.3353
53.4452
51.722
50.0737
48.6402
47.1118
45.8985
383.614
201.95
146.878
121.765
107.11
97.403
89.6442
83.4369
78.0672
73.2466
68.9131
64.9787
61.4031
58.1467
55.1765
52.4678
49.9972
47.7427
45.6826
43.7978
42.0679
40.4813
39.0126
37.669
36.4008
35.2659
34.1357
33.1988
32.164
31.2337
151.869
75.0315
58.036
50.3701
45.6802
42.5565
39.984
37.7673
35.776
33.9396
32.2365
30.6522
29.1824
27.8123
26.5299
25.3398
24.2398
23.2252
22.2892
21.4262
20.6268
19.8907
19.2002
18.5725
17.9632
17.4329
16.883
16.4197
15.9782
15.4185
12.4958
9.27921
7.62499
6.69362
6.09358
5.6682
5.33636
5.05954
4.81748
4.59875
4.39735
4.20989
4.03441
3.87
3.71582
3.57093
3.43475
3.30681
3.18669
3.07388
2.96807
2.86846
2.77548
2.68671
2.60605
2.52446
2.45763
2.37884
2.32033
2.24152
633.119
555.919
449.501
320.724
172.015
70.5029
39.0938
51.41
60.7142
69.9971
78.3764
85.5095
91.297
95.825
99.2752
101.845
103.707
104.999
105.814
107.899
107.525
106.935
106.174
105.272
104.256
103.149
101.972
100.755
99.5781
99.1455
633.916
559.343
458.233
334.764
193.166
88.8373
52.6933
62.901
69.6247
77.3505
84.5478
90.7125
95.6978
99.5546
102.435
104.513
105.949
106.871
107.363
109.391
108.735
107.904
106.936
105.856
104.689
103.452
102.165
100.855
99.5966
99.0962
635.3
565.224
472.196
355.497
233.376
142.52
100.365
89.5222
90.1392
94.0416
98.3755
102.268
105.401
107.723
109.313
110.293
110.783
110.889
110.676
112.058
110.886
109.61
108.26
106.853
105.406
103.931
102.44
100.956
99.5477
98.9207
636.923
572.136
488.819
388.943
290.828
196.964
148.545
127.648
120.213
118.34
118.297
118.73
119.077
119.12
118.82
118.211
117.353
116.308
115.108
115.342
113.495
111.636
109.785
107.949
106.136
104.348
102.591
100.879
99.2715
98.475
638.396
578.531
504.281
419.004
334.684
253.07
200.586
171.164
155.632
146.922
141.582
137.782
134.728
132.009
129.44
126.946
124.507
122.124
119.797
118.542
115.947
113.444
111.041
108.736
106.521
104.391
102.341
100.379
98.5509
97.5619
639.279
582.733
515.274
441.055
367.924
304.893
257.144
223.885
201.01
184.79
172.44
162.84
155.018
148.367
142.56
137.391
132.727
128.479
124.599
120.937
117.574
114.442
111.51
108.755
106.158
103.702
101.374
99.174
97.1317
95.9487
639.11
583.153
519.27
452.264
387.55
330.501
284.458
249.418
223.197
203.302
187.779
175.154
164.763
156.024
148.483
141.871
136.002
130.743
125.998
121.659
117.692
114.045
110.676
107.549
104.636
101.913
99.3585
96.9664
94.7434
93.3854
637.34
578.102
514.055
450.672
391.717
339.897
296.732
262.115
234.784
213.118
195.699
181.468
169.36
159.19
150.488
142.897
136.205
130.252
124.917
120.096
115.718
111.722
108.059
104.685
101.565
98.6697
95.972
93.4621
91.1166
89.6202
633.13
565.31
497.17
434.612
379.56
332.395
292.939
260.53
234.128
212.581
194.859
180.17
167.612
156.809
147.634
139.627
132.578
126.321
120.731
115.703
111.155
107.021
103.246
99.784
96.5966
93.6511
90.9171
88.3867
85.9969
84.4133
624.951
541.262
465.415
402.246
350.649
308.379
273.562
244.809
221.011
201.222
184.663
170.744
158.711
148.263
139.335
131.515
124.614
118.483
113.004
108.079
103.63
99.5907
95.9081
92.5375
89.4395
86.5839
83.9357
81.4984
79.1582
77.5497
609.644
500.383
415.041
352.247
305.358
269.09
240.042
216.222
196.373
179.644
165.445
153.333
142.667
133.452
125.435
118.366
112.098
106.509
101.5
96.9887
92.9075
89.2003
85.8182
82.7228
79.8767
77.2575
74.8221
72.6
70.4142
68.8513
579.977
434.404
342.843
284.996
245.853
217.372
195.217
177.249
162.216
149.386
138.367
128.662
120.226
112.78
106.197
100.345
95.1165
90.4265
86.202
82.382
78.9146
75.7569
72.8689
70.223
67.7828
65.5423
63.4411
61.5549
59.6353
58.1944
518.147
334.272
249.674
204.698
176.955
157.841
143.181
131.402
121.446
112.738
105.195
98.4694
92.4801
87.1209
82.3126
77.9861
74.0825
70.5512
67.3478
64.4341
61.7753
59.3447
57.111
55.0625
53.159
51.4229
49.7618
48.3154
46.7793
45.5403
383.583
201.833
146.662
121.455
106.717
96.9641
89.1822
82.99
77.6489
72.8726
68.5843
64.6925
61.1536
57.9287
54.9837
52.2938
49.8365
47.5903
45.5346
43.651
41.9197
40.3301
38.8568
37.5079
36.2336
35.0923
33.9565
33.0091
31.9822
31.0202
151.867
75.0079
57.9798
50.281
45.5536
42.4039
39.8154
37.595
35.6082
33.7827
32.0934
30.5238
29.0667
27.7114
26.4418
25.2619
24.1697
23.1606
22.2281
21.367
20.5682
19.8318
19.1401
18.5108
17.8995
17.3663
16.8167
16.34
15.9421
15.3014
12.4958
9.27877
7.62291
6.6892
6.08632
5.65822
5.32406
5.04562
4.80263
4.58364
4.38246
4.19556
4.02083
3.85717
3.70376
3.55964
3.42415
3.29683
3.17721
3.06482
2.95934
2.85996
2.76717
2.67845
2.59796
2.51594
2.45073
2.36529
2.33307
2.21157
635.758
567.786
480.29
374.623
272.222
181.707
134.381
133.461
127.378
124.65
123.283
122.438
121.686
120.835
119.825
118.659
117.363
115.972
114.549
112.953
111.349
109.725
108.088
106.445
104.803
103.168
101.544
99.9479
98.4394
97.7229
636.317
570.129
485.797
385.258
287.169
196.368
147.421
145.719
136.787
132.227
129.484
127.571
125.957
124.401
122.807
121.151
119.439
117.694
115.963
114.107
112.28
110.465
108.664
106.88
105.118
103.378
101.665
99.9928
98.4176
97.6443
637.275
574.131
495.003
402.658
312.19
238.74
193.033
168.197
154.817
146.219
140.983
137.068
133.833
130.95
128.259
125.685
123.198
120.793
118.493
116.155
113.918
111.751
109.648
107.605
105.619
103.688
101.81
99.996
98.2971
97.4177
638.367
578.74
505.695
422.819
340.925
272.837
225.307
195.619
177.23
164.869
156.057
149.47
144.065
139.404
135.243
131.444
127.928
124.649
121.6
118.63
115.856
113.23
110.731
108.348
106.07
103.888
101.794
99.7955
97.9337
96.912
639.276
582.722
515.249
441.013
367.874
304.834
257.081
223.825
200.956
184.743
172.399
162.807
154.99
148.343
142.54
137.375
132.713
128.467
124.59
120.929
117.567
114.436
111.505
108.751
106.154
103.698
101.371
99.1714
97.1294
95.9467
639.645
584.765
521.221
453.627
387.803
329.735
283.108
247.961
221.905
202.303
187.085
174.723
164.617
156.093
148.729
142.261
136.508
131.342
126.672
122.383
118.459
114.849
111.509
108.406
105.51
102.798
100.252
97.865
95.6505
94.3063
639.07
583.5
521.433
458
397.646
344.074
299.506
264.07
236.376
214.628
197.261
183.123
171.126
161.106
152.49
144.971
138.335
132.423
127.119
122.312
117.941
113.947
110.279
106.895
103.761
100.848
98.1311
95.5991
93.2441
91.7561
637.025
577.315
513.71
451.947
395.326
345.697
303.856
269.569
241.834
219.385
201.051
185.928
173.072
162.051
152.686
144.522
137.336
130.956
125.253
120.117
115.466
111.235
107.368
103.817
100.544
97.516
94.7036
92.0952
89.6534
88.0552
632.668
563.907
495.424
433.34
379.39
333.486
295.019
263.147
236.87
215.172
197.142
182.067
169.201
157.986
148.453
140.135
132.808
126.306
120.5
115.281
110.567
106.286
102.383
98.8085
95.5223
92.4908
89.6812
87.0862
84.6304
82.969
624.458
539.7
463.198
399.925
348.694
307.046
272.873
244.628
221.145
201.502
184.963
170.976
158.876
148.305
139.243
131.291
124.266
118.019
112.433
107.41
102.872
98.7527
94.9979
91.5625
88.4065
85.4997
82.8054
80.329
77.9467
76.2802
609.213
499.015
413.023
349.923
303.038
266.996
238.285
214.817
195.263
178.763
164.71
152.675
142.068
132.884
124.857
117.766
111.468
105.845
100.799
96.2497
92.1313
88.388
84.9716
81.844
78.9678
76.3211
73.86
71.6163
69.4062
67.8008
579.666
433.442
341.398
283.238
243.95
215.48
193.447
175.667
160.821
148.19
137.294
127.728
119.387
112.014
105.478
99.6552
94.4446
89.7624
85.5386
81.7142
78.2387
75.0705
72.1703
69.5116
67.0581
64.8047
62.6903
60.793
58.8619
57.3902
517.979
333.763
248.876
203.663
175.75
156.556
141.893
130.186
120.296
111.712
104.269
97.6408
91.7347
86.4444
81.6903
77.4053
73.5323
70.0227
66.8338
63.9289
61.2744
58.8448
56.6094
54.5576
52.6493
50.908
49.2408
47.788
46.2499
44.988
383.532
201.657
146.346
121.002
106.142
96.3094
88.4804
82.2872
76.9682
72.2379
68.0003
64.1606
60.6697
57.4886
54.5811
51.922
49.489
47.2615
45.2193
43.3453
41.62
40.034
38.5621
37.2132
35.9375
34.7941
33.6564
32.7029
31.6833
30.7009
151.864
74.9773
57.9059
50.1619
45.3821
42.1928
39.577
37.344
35.356
33.5387
31.8626
30.3088
28.8667
27.5286
26.2751
25.109
24.0281
23.0278
22.1019
21.2456
20.45
19.7157
19.0249
18.396
17.7844
17.2501
16.701
16.2191
15.8301
15.1761
12.4958
9.27826
7.62036
6.68363
6.07697
5.64508
5.3075
5.02642
4.78167
4.56175
4.36032
4.17368
3.99955
3.8366
3.68403
3.54078
3.40615
3.27962
3.16072
3.04895
2.94401
2.84507
2.75265
2.6642
2.58398
2.50207
2.43701
2.35167
2.31996
2.19719
637.076
574.505
499.266
415.117
332.782
265.771
219.52
189.13
171.842
160.22
151.96
145.645
140.444
135.955
131.953
128.306
124.938
121.799
118.868
116.073
113.429
110.923
108.537
106.26
104.079
101.988
99.9786
98.0576
96.2571
95.2796
637.427
575.949
502.503
421.04
341.351
275.73
229.133
197.633
178.759
166.027
156.622
149.512
143.658
138.631
134.183
130.164
126.481
123.073
119.913
116.922
114.11
111.459
108.948
106.562
104.288
102.116
100.037
98.0559
96.2022
95.1784
638.019
578.393
507.97
430.984
355.778
291.664
244.631
212.614
191.382
176.521
165.187
156.599
149.527
143.503
138.229
133.518
129.25
125.348
121.764
118.411
115.29
112.371
109.629
107.044
104.597
102.276
100.069
97.9766
96.0246
94.9139
638.66
581.094
514.147
442.34
372.411
311.696
264.789
231.037
207.129
189.68
176.305
165.639
157.007
149.681
143.323
137.703
132.669
128.119
123.98
120.155
116.629
113.361
110.319
107.473
104.803
102.288
99.9138
97.6772
95.5959
94.3693
639.107
583.138
519.239
452.212
387.484
330.424
284.376
249.339
223.123
203.237
187.722
175.104
164.721
155.989
148.453
141.845
135.98
130.724
125.982
121.645
117.68
114.035
110.667
107.541
104.629
101.907
99.3531
96.9616
94.7391
93.3815
639.069
583.495
521.422
457.982
397.622
344.046
299.476
264.041
236.348
214.603
197.239
183.103
171.109
161.091
152.478
144.96
138.325
132.415
127.112
122.306
117.936
113.942
110.274
106.891
103.758
100.846
98.1286
95.5969
93.2421
91.7542
638.191
580.978
518.844
457.369
400.242
349.787
307.156
272.267
244.127
221.42
202.922
187.69
174.758
163.693
154.28
146.08
138.862
132.453
126.723
121.558
116.879
112.62
108.726
105.149
101.851
98.7976
95.9611
93.3287
90.8714
89.2697
635.968
574.044
509.419
448.209
393.272
345.629
305.363
271.948
244.46
221.843
203.12
187.507
174.26
162.71
152.893
144.353
136.834
130.165
124.209
118.855
114.017
109.624
105.616
101.945
98.5694
95.4536
92.5662
89.8954
87.3851
85.7
631.565
560.406
490.462
428.136
374.899
330.169
292.856
261.856
236.111
214.666
196.697
181.555
168.618
157.254
147.539
139.073
131.603
124.97
119.045
113.72
108.911
104.549
100.573
96.9355
93.5947
90.5165
87.6665
85.0391
82.5423
80.8167
623.435
536.453
458.479
394.634
343.554
302.496
269.063
241.518
218.595
199.358
183.088
169.257
157.26
146.756
137.702
129.744
122.701
116.431
110.817
105.765
101.199
97.0528
93.2729
89.8147
86.6381
83.7134
81.0029
78.5153
76.1129
74.4
608.376
496.411
409.228
345.524
298.51
262.672
234.35
211.335
192.21
176.09
162.336
150.505
140.093
131.065
123.13
116.108
109.861
104.273
99.2509
94.7183
90.6101
86.873
83.4597
80.3333
77.4569
74.8098
72.3468
70.1044
67.8886
66.2503
579.089
431.711
338.874
280.217
240.687
212.187
190.279
172.723
158.125
145.772
135.07
125.728
117.56
110.334
103.913
98.1823
93.0439
88.4184
84.2388
80.4486
76.9994
73.8515
70.9667
68.3199
65.8752
63.6292
61.5192
59.6281
57.7001
56.2051
517.679
332.896
247.57
202.007
173.846
154.519
139.827
128.19
118.374
109.943
102.631
96.1401
90.3569
85.1753
80.5136
76.3056
72.4961
69.0381
65.8908
63.0193
60.3911
57.9825
55.7633
53.7245
51.8259
50.0929
48.4312
46.9835
45.4536
44.175
383.447
201.383
145.871
120.332
105.295
95.3412
87.4361
81.2224
75.9175
71.2349
67.0553
63.2799
59.8519
56.7305
53.877
51.265
48.872
46.6778
44.6628
42.811
41.1033
39.5314
38.0703
36.7304
35.4609
34.3231
33.1897
32.2368
31.2292
30.2325
151.859
74.9356
57.8054
49.9989
45.1463
41.8997
39.2418
36.985
34.9881
33.1749
31.5106
29.9733
28.5488
27.2308
25.9974
24.8496
23.7845
22.7976
21.8827
21.0354
20.2468
19.5183
18.8317
18.2065
17.5973
17.0648
16.5184
16.0344
15.6524
14.9938
12.4958
9.27765
7.61719
6.67652
6.06478
5.62762
5.28517
5.00014
4.75246
4.53072
4.32839
4.14156
3.96779
3.80548
3.65377
3.51151
3.37792
3.25243
3.13452
3.02365
2.91954
2.82132
2.72958
2.64164
2.562
2.4804
2.41586
2.33067
2.29949
2.17657
636.394
573.966
504.241
432.199
363.659
305.051
259.686
226.233
202.697
185.471
172.272
161.606
152.97
145.652
139.319
133.745
128.775
124.303
120.246
116.525
113.095
109.921
106.97
104.215
101.633
99.2044
96.913
94.7562
92.7332
91.5396
636.592
574.765
505.98
435.284
368.162
310.453
265.221
231.436
207.216
189.302
175.531
164.295
155.22
147.533
140.89
135.055
129.864
125.202
120.981
117.118
113.566
110.285
107.242
104.407
101.755
99.2663
96.9222
94.7195
92.6554
91.4248
636.912
576.08
508.878
440.468
375.775
319.51
274.608
240.548
215.284
196.191
181.337
169.206
159.278
150.915
143.706
137.392
131.795
126.782
122.259
118.134
114.357
110.882
107.67
104.688
101.909
99.3086
96.8677
94.5809
92.441
91.1412
637.222
577.41
511.963
446.189
384.391
330.254
286.04
251.567
225.151
204.699
188.539
175.362
164.325
155.099
147.162
140.231
134.105
128.638
123.722
119.261
115.193
111.467
108.037
104.865
101.921
99.1773
96.6119
94.2167
91.9781
90.5859
637.336
578.089
514.027
450.625
391.655
339.824
296.654
262.037
234.711
213.051
195.639
181.416
169.314
159.151
150.453
142.867
136.179
130.229
124.898
120.079
115.703
111.709
108.047
104.675
101.556
98.6617
95.9648
93.4557
91.1108
89.6149
637.023
577.308
513.696
451.924
395.296
345.661
303.818
269.529
241.797
219.35
201.019
185.9
173.046
162.029
152.666
144.505
137.321
130.943
125.242
120.107
115.457
111.228
107.361
103.811
100.539
97.5111
94.6991
92.0912
89.6498
88.0519
635.967
574.042
509.414
448.201
393.262
345.616
305.349
271.934
244.446
221.83
203.108
187.496
174.25
162.701
152.885
144.346
136.828
130.159
124.204
118.851
114.013
109.62
105.613
101.943
98.567
95.4514
92.5642
89.8936
87.3835
85.6985
633.692
566.848
499.237
437.416
383.615
337.885
299.525
267.594
241.087
219.037
200.591
185.064
171.853
160.232
150.296
141.663
134.048
127.289
121.253
115.829
110.932
106.489
102.441
98.7365
95.3346
92.1997
89.2981
86.6207
84.0866
82.3418
629.381
553.5
480.549
417.199
364.404
320.897
285.023
255.326
230.616
209.93
192.494
177.712
165.015
153.835
144.229
135.833
128.412
121.812
115.91
110.604
105.81
101.459
97.4951
93.8691
90.5399
87.4743
84.6365
82.0257
79.5277
77.7617
621.493
530.392
449.799
384.881
333.842
293.47
261.002
234.452
212.419
193.925
178.246
164.867
153.201
143.01
134.171
126.38
119.469
113.305
107.777
102.797
98.2898
94.1946
90.4587
87.0391
83.8969
81.0041
78.3213
75.864
73.4758
71.737
606.818
491.684
402.539
337.924
290.729
255.173
227.386
205.008
186.518
170.984
157.738
146.284
136.257
127.529
119.834
113.009
106.922
101.466
96.5551
92.1148
88.0847
84.414
81.0577
77.981
75.1477
72.5398
70.1098
67.9021
65.709
64.0545
578.02
428.618
334.542
275.197
235.369
206.86
185.141
167.899
153.652
141.687
131.287
122.288
114.4
107.418
101.204
95.6471
90.6554
86.1534
82.078
78.3758
75.0012
71.9169
69.0865
66.487
64.0827
61.8734
59.7937
57.9334
56.0308
54.5254
517.126
331.378
245.39
199.349
170.866
151.377
136.654
125.108
115.395
107.162
100.032
93.7334
88.1284
83.1083
78.5896
74.5063
70.8042
67.4383
64.3694
61.5647
58.9933
56.6333
54.4555
52.4528
50.5846
48.8793
47.2401
45.8137
44.3077
43.0217
383.294
200.927
145.116
119.302
104.027
93.9083
85.8997
79.6518
74.3589
69.7316
65.6239
61.9309
58.5869