/*--------------------------------*- C++ -*----------------------------------*\
  =========                 |
  \\      /  F ield         | OpenFOAM: The Open Source CFD Toolbox
   \\    /   O peration     | Website:  https://openfoam.org
    \\  /    A nd           | Version:  10
     \\/     M anipulation  |
\*---------------------------------------------------------------------------*/
FoamFile
{
    format      ascii;
    class       volScalarField;
    location    "400";
    object      omega;
}
// * * * * * * * * * * * * * * * * * * * * * * * * * * * * * * * * * * * * * //

dimensions      [0 0 -1 0 0 0 0];

internalField   nonuniform List<scalar> 
27507
(
0.55875
0.694146
1.21389
7.73756
3.11875
3.08593
2.78477
2.40968
2.07317
1.79971
1.5844
1.41554
1.28195
1.16129
1.05409
0.989306
0.934379
0.886914
0.845508
0.809047
0.776643
0.747598
0.721351
0.697502
0.674415
0.557097
0.673916
1.06931
5.14358
4.25468
3.60051
2.912
2.40233
2.03262
1.75859
1.55083
1.38999
1.26302
1.14548
1.0405
0.979039
0.926411
0.880813
0.840887
0.805588
0.77409
0.745755
0.720064
0.696655
0.673921
0.554909
0.650541
0.893981
2.52381
22.3692
5.94953
3.80247
2.81742
2.26051
1.90351
1.65493
1.47159
1.33069
1.21903
1.11265
1.0161
0.960362
0.912173
0.870025
0.832783
0.799572
0.769706
0.742648
0.717965
0.695356
0.673259
0.551796
0.632936
0.82556
1.4449
5.15901
72.5132
59.346
7.58585
4.32242
3.04875
2.38148
1.97637
1.70593
1.51263
1.36715
1.25325
1.16129
1.07062
0.986077
0.93756
0.894922
0.857068
0.823165
0.792567
0.764752
0.739315
0.715917
0.694335
0.673038
0.548188
0.613676
0.745056
1.05017
1.79841
3.85911
5.74922
4.01103
3.12895
2.52414
2.11313
1.82493
1.61535
1.45743
1.33442
1.23574
1.15452
1.0862
1.02759
0.956494
0.915245
0.878239
0.84478
0.814329
0.786457
0.760807
0.737089
0.715054
0.694574
0.674095
0.545107
0.597687
0.689779
0.855581
1.11974
1.58457
1.95393
1.77633
1.70607
1.60412
1.49942
1.40195
1.31492
1.23838
1.17123
1.11209
1.05965
1.01277
0.970352
0.932165
0.897317
0.865355
0.835888
0.808604
0.783239
0.759581
0.737454
0.71669
0.697252
0.67747
0.543299
0.588112
0.658191
0.764466
0.910601
1.07418
1.21148
1.29894
1.31876
1.30527
1.2724
1.23031
1.18546
1.14077
1.09765
1.05675
1.01826
0.982196
0.948352
0.916692
0.887009
0.859118
0.832885
0.80818
0.784882
0.762875
0.742062
0.722334
0.70376
0.684421
0.543314
0.586459
0.647204
0.727522
0.825995
0.931455
1.02567
1.09581
1.13411
1.14757
1.14388
1.13008
1.10811
1.08216
1.05412
1.02523
0.996277
0.967711
0.939846
0.912895
0.886952
0.862056
0.838206
0.815388
0.793577
0.772734
0.752829
0.73378
0.715806
0.696524
0.545838
0.594663
0.656611
0.728853
0.808187
0.888438
0.96102
1.01902
1.05833
1.08036
1.08799
1.08542
1.07618
1.06034
1.04082
1.01898
0.995785
0.971914
0.947831
0.923875
0.900284
0.877216
0.854774
0.833023
0.812005
0.791728
0.77222
0.753382
0.735676
0.715917
0.552214
0.61706
0.691194
0.767401
0.841931
0.911562
0.972588
1.02181
1.05735
1.07969
1.09031
1.09107
1.08659
1.07564
1.0599
1.04134
1.02084
0.999122
0.9767
0.95398
0.931262
0.908768
0.886655
0.865034
0.843993
0.823555
0.80382
0.784583
0.766755
0.745786
0.565535
0.663642
0.764634
0.856011
0.934407
0.999945
1.05328
1.09454
1.12384
1.14213
1.15024
1.14992
1.14491
1.13368
1.11796
1.09936
1.07869
1.05664
1.03373
1.01038
0.986903
0.963546
0.940494
0.917867
0.895798
0.874272
0.853528
0.833045
0.814654
0.791414
0.594046
0.759283
0.910235
1.02847
1.11557
1.17818
1.223
1.25371
1.2726
1.28214
1.28229
1.27721
1.26593
1.24989
1.2303
1.20813
1.18414
1.15893
1.133
1.10674
1.08046
1.05439
1.02872
1.00355
0.979091
0.955148
0.932345
0.909302
0.889846
0.862671
0.664504
0.975695
1.21559
1.36967
1.46127
1.5119
1.53957
1.551
1.55062
1.54445
1.5304
1.51131
1.48822
1.46184
1.43301
1.40242
1.37069
1.3383
1.30567
1.27311
1.24093
1.20927
1.1784
1.14821
1.11921
1.09061
1.06416
1.03619
1.01502
0.981001
0.896587
1.57444
1.951
2.11822
2.17845
2.18025
2.16539
2.13389
2.09589
2.05552
2.01243
1.96738
1.92081
1.87336
1.82552
1.7776
1.72991
1.68273
1.63634
1.59093
1.54678
1.50385
1.46261
1.42237
1.38461
1.3466
1.31348
1.27555
1.25115
1.20458
2.25129
3.88437
4.19795
4.15082
4.01634
3.84885
3.69716
3.55847
3.43085
3.31228
3.20025
3.09334
2.99014
2.89187
2.79816
2.70802
2.62114
2.53741
2.45694
2.37965
2.30587
2.23501
2.16824
2.10307
2.04408
1.9826
1.93343
1.87206
1.8344
1.76514
25.3733
18.8433
15.4898
13.6059
12.3959
11.5395
10.8714
10.3124
9.8217
9.37645
8.96501
8.58112
8.22131
7.88438
7.56835
7.27149
6.9927
6.73109
6.48576
6.25571
6.04022
5.83768
5.64882
5.46882
5.30528
5.14023
5.00549
4.84332
4.74018
4.55582
0.557106
0.673956
1.07101
5.32312
4.3506
3.62719
2.91939
2.4048
2.0336
1.75902
1.55103
1.39009
1.26307
1.14551
1.04053
0.979063
0.926429
0.880826
0.840897
0.805596
0.774097
0.74576
0.720068
0.696658
0.673924
0.555787
0.660247
0.975231
3.80491
5.29787
3.82895
2.92282
2.36087
1.9851
1.71783
1.51896
1.36597
1.24519
1.13065
1.02763
0.969208
0.91889
0.875084
0.836555
0.802343
0.771695
0.744026
0.71886
0.695867
0.673469
0.553697
0.642351
0.852437
2.20395
64.3193
16.5045
5.70293
3.63978
2.71495
2.19009
1.85275
1.61757
1.44386
1.31004
1.20362
1.09978
1.00479
0.951713
0.905553
0.864972
0.828949
0.796692
0.767577
0.741113
0.7169
0.694667
0.672874
0.55068
0.626921
0.797275
1.29899
3.8485
54.8337
26.9604
6.39876
3.93928
2.87056
2.28205
1.91409
1.6638
1.48268
1.34521
1.23687
1.14893
1.06015
0.976847
0.93043
0.88942
0.852839
0.819939
0.790134
0.762951
0.738019
0.715025
0.69377
0.672736
0.547306
0.609078
0.727636
0.975594
1.61187
3.16115
4.555
3.41649
2.82812
2.35425
2.00946
1.75769
1.56949
1.42486
1.31057
1.21786
1.14091
1.07573
1.01949
0.94929
0.909614
0.873851
0.84138
0.81172
0.784484
0.759345
0.73604
0.71434
0.694134
0.673876
0.544495
0.594701
0.680601
0.829262
1.06222
1.47279
1.79712
1.64641
1.60871
1.53161
1.44549
1.36148
1.28426
1.2149
1.15306
1.0979
1.0485
1.00398
0.96341
0.926679
0.892988
0.861952
0.833232
0.806552
0.78168
0.758426
0.736629
0.716136
0.696922
0.677321
0.542909
0.586302
0.65325
0.752652
0.887365
1.03634
1.16377
1.24862
1.27475
1.26745
1.24252
1.20624
1.1662
1.12537
1.08533
1.04686
1.01032
0.975816
0.943229
0.912587
0.883726
0.856511
0.830834
0.806586
0.783667
0.761972
0.741419
0.721905
0.703511
0.684316
0.543083
0.585421
0.64455
0.721762
0.815424
0.915248
1.00508
1.07304
1.11216
1.12778
1.12647
1.11554
1.09595
1.07209
1.0458
1.01838
0.990634
0.963085
0.936069
0.909826
0.884472
0.860065
0.836623
0.814146
0.792621
0.772017
0.752313
0.733431
0.715601
0.696432
0.545714
0.594109
0.655224
0.725953
0.80307
0.880739
0.951097
1.00768
1.04672
1.06928
1.07792
1.0763
1.06836
1.05367
1.03514
1.01419
0.991765
0.968556
0.945039
0.921567
0.898387
0.87567
0.853525
0.832026
0.811222
0.791127
0.771773
0.753065
0.735473
0.715803
0.552156
0.616801
0.69054
0.76603
0.839448
0.907755
0.967543
1.01585
1.05099
1.07334
1.08428
1.0855
1.08147
1.07118
1.056
1.03795
1.01793
0.996635
0.974587
0.952195
0.929763
0.907516
0.885619
0.864183
0.843302
0.823002
0.803386
0.78425
0.766513
0.745614
0.565514
0.663552
0.764396
0.855469
0.933349
0.998205
1.05083
1.09146
1.12035
1.13846
1.1466
1.14639
1.14157
1.13063
1.11521
1.0969
1.07651
1.05472
1.03206
1.00892
0.985645
0.962463
0.939567
0.917077
0.895128
0.873707
0.853056
0.832651
0.814334
0.791152
0.594044
0.759288
0.910241
1.02841
1.1153
1.17756
1.22196
1.25223
1.27077
1.28005
1.28006
1.27495
1.26367
1.24772
1.22827
1.20624
1.18241
1.15736
1.13158
1.10546
1.07932
1.05337
1.02782
1.00275
0.978382
0.95452
0.931791
0.908809
0.889414
0.862289
0.66451
0.975756
1.21576
1.36992
1.4615
1.51195
1.53935
1.55039
1.54977
1.5433
1.52894
1.50975
1.48657
1.46018
1.43137
1.40084
1.36918
1.33688
1.30434
1.27189
1.2398
1.20823
1.17744
1.14734
1.11841
1.08987
1.06349
1.03556
1.01445
0.98047
0.896594
1.57456
1.95133
2.11873
2.17903
2.18067
2.16563
2.13375
2.09542
2.05473
2.01135
1.96611
1.91941
1.87189
1.82401
1.77609
1.72843
1.6813
1.63497
1.58964
1.54556
1.50271
1.46153
1.42136
1.38367
1.3457
1.31265
1.27472
1.25044
1.20381
2.25129
3.88457
4.19843
4.15137
4.0169
3.84913
3.69708
3.55798
3.42997
3.31108
3.19881
3.09175
2.98852
2.89013
2.79636
2.70623
2.61937
2.53571
2.45531
2.37811
2.3044
2.23361
2.16692
2.1018
2.04288
1.98139
1.93235
1.87075
1.83379
1.76366
25.3733
18.843
15.4885
13.6033
12.3919
11.5344
10.8654
10.3061
9.81544
9.37058
8.95975
8.57656
8.21747
7.88114
7.56566
7.26928
6.99089
6.72958
6.48448
6.25456
6.03915
5.83661
5.64773
5.46762
5.30405
5.13869
5.0042
4.84092
4.73969
4.55266
0.55492
0.650596
0.894195
2.53219
21.5079
6.06817
3.82733
2.82651
2.26452
1.90544
1.65591
1.47211
1.33097
1.21918
1.11275
1.01618
0.960423
0.912219
0.870061
0.83281
0.799593
0.769723
0.742662
0.717976
0.695365
0.673266
0.553702
0.642361
0.851994
2.18845
84.6172
18.8124
5.67893
3.64521
2.71906
2.19227
1.85389
1.61818
1.4442
1.31023
1.20373
1.09985
1.00484
0.951751
0.905582
0.864994
0.828966
0.796706
0.767587
0.741122
0.716908
0.694673
0.672879
0.551444
0.62965
0.788219
1.48505
6.35993
8.45073
4.52629
3.1416
2.43611
2.01184
1.73008
1.52957
1.37927
1.26202
1.16768
1.07294
0.984836
0.936423
0.893863
0.856079
0.822241
0.791701
0.763941
0.738552
0.715196
0.69365
0.672404
0.548697
0.616398
0.756062
1.09704
2.19744
6.31899
10.4638
6.93556
4.39278
3.16836
2.48412
2.05765
1.7707
1.56599
1.41292
1.29397
1.19852
1.1199
1.03821
0.960534
0.917821
0.879708
0.845407
0.814311
0.785939
0.759901
0.735886
0.713629
0.692972
0.672412
0.545786
0.601491
0.703758
0.905806
1.3337
2.01524
2.56355
2.57238
2.31919
2.04236
1.80971
1.62384
1.47622
1.35771
1.26094
1.18046
1.11233
1.05368
1.00241
0.936514
0.899644
0.866109
0.835421
0.807193
0.781109
0.756901
0.734348
0.71326
0.693558
0.673696
0.543443
0.589705
0.666333
0.792122
0.976001
1.19896
1.37394
1.45074
1.44912
1.41346
1.3547
1.29201
1.2309
1.17364
1.12093
1.07272
1.02867
0.988309
0.951061
0.916939
0.885331
0.855968
0.828601
0.803019
0.779046
0.756528
0.735335
0.715338
0.696536
0.677256
0.542242
0.583245
0.645137
0.733963
0.850299
0.980452
1.0935
1.16827
1.20108
1.20416
1.19072
1.16414
1.13228
1.0981
1.0634
1.02923
0.996161
0.96444
0.934115
0.905308
0.877937
0.851951
0.827286
0.803874
0.781644
0.760521
0.740441
0.721319
0.703257
0.684317
0.542696
0.583679
0.640119
0.712238
0.797906
0.888947
0.971581
1.03498
1.07463
1.09352
1.09649
1.08955
1.07441
1.05416
1.03096
1.00614
0.980565
0.954849
0.929371
0.904409
0.880124
0.856608
0.833909
0.812055
0.791051
0.770884
0.751546
0.732971
0.715404
0.696434
0.545514
0.593209
0.652943
0.72114
0.794483
0.867815
0.934334
0.988289
1.02665
1.04994
1.06028
1.06021
1.05438
1.04183
1.02505
1.00566
0.984617
0.962599
0.940106
0.917511
0.89508
0.872998
0.851394
0.830355
0.809941
0.790177
0.771104
0.752633
0.735251
0.715735
0.552071
0.616414
0.689529
0.76383
0.835364
0.90139
0.958997
1.00565
1.03997
1.06227
1.07371
1.0757
1.0724
1.06327
1.04907
1.03195
1.01278
0.992238
0.970862
0.949061
0.927146
0.905349
0.883842
0.862743
0.842153
0.822104
0.802704
0.78375
0.766182
0.745404
0.565493
0.663458
0.764107
0.854712
0.931739
0.995427
1.04678
1.08628
1.11441
1.13214
1.14028
1.14024
1.1357
1.12525
1.11034
1.09254
1.07265
1.05133
1.02909
1.00635
0.983425
0.960558
0.937943
0.915701
0.89397
0.872739
0.852257
0.831992
0.813815
0.790727
0.594051
0.759351
0.910367
1.02848
1.11507
1.17675
1.2204
1.24985
1.26774
1.27651
1.27629
1.27102
1.25968
1.24389
1.22465
1.20287
1.1793
1.15452
1.12901
1.10315
1.07725
1.05152
1.02617
1.00129
0.977088
0.953373
0.93078
0.907905
0.888633
0.861578
0.664525
0.975907
1.21616
1.37054
1.46214
1.51231
1.53922
1.54954
1.54846
1.54139
1.52646
1.50701
1.48365
1.45719
1.42839
1.39794
1.3664
1.33424
1.30187
1.26958
1.23766
1.20626
1.17562
1.14566
1.11687
1.08845
1.06218
1.03432
1.01336
0.979374
0.896608
1.57479
1.95199
2.11976
2.18024
2.18161
2.16623
2.13365
2.09469
2.05337
2.00941
1.96376
1.91679
1.86909
1.82111
1.77318
1.72555
1.6785
1.63228
1.58708
1.54314
1.50041
1.45937
1.41931
1.38174
1.34386
1.31095
1.27297
1.24913
1.20196
2.2513
3.88493
4.19931
4.15238
4.01792
3.84962
3.69688
3.55695
3.42818
3.30865
3.19589
3.08848
2.98515
2.88654
2.79266
2.7025
2.61571
2.53215
2.45188
2.37482
2.30127
2.23062
2.16406
2.09904
2.04024
1.97877
1.93001
1.86757
1.83486
1.75736
25.3733
18.8425
15.4862
13.5986
12.3843
11.5244
10.8536
10.2934
9.80262
9.35826
8.94837
8.56637
8.20852
7.87327
7.55881
7.26334
6.98571
6.72501
6.48037
6.25076
6.03553
5.83306
5.64416
5.46394
5.30028
5.13445
5.00075
4.833
4.74863
4.53326
0.551812
0.633073
0.826194
1.4466
5.35165
92.9184
7.6623
4.34396
3.05926
2.38737
1.97978
1.70793
1.51382
1.36786
1.25368
1.16156
1.07081
0.98621
0.93766
0.895
0.857128
0.823212
0.792604
0.764782
0.739339
0.715936
0.694352
0.67305
0.550693
0.627016
0.797644
1.29764
3.84595
57.7241
33.2249
6.4152
3.94889
2.87663
2.28599
1.91654
1.6653
1.4836
1.34577
1.23721
1.14916
1.0603
0.97695
0.930509
0.889481
0.852887
0.819976
0.790164
0.762975
0.738038
0.715041
0.693783
0.672746
0.548704
0.616435
0.756172
1.09653
2.19498
6.40674
10.5243
6.96178
4.40321
3.17259
2.48637
2.05914
1.7717
1.56664
1.41335
1.29424
1.19869
1.12002
1.03829
0.960588
0.917863
0.879741
0.845432
0.814331
0.785956
0.759914
0.735897
0.713638
0.692979
0.672417
0.546324
0.604335
0.714006
0.940474
1.46085
2.33607
3.57888
3.4692
2.89202
2.40378
2.04518
1.7834
1.58825
1.43877
1.32109
1.22601
1.14737
1.08098
1.00969
0.940643
0.902493
0.867989
0.836549
0.807733
0.781181
0.756604
0.733765
0.712455
0.692569
0.6726
0.543986
0.592703
0.676796
0.823638
1.05166
1.47501
1.7924
1.89623
1.83638
1.71208
1.58187
1.46346
1.36068
1.27266
1.19719
1.13198
1.07507
1.02485
0.98006
0.920908
0.887542
0.856818
0.828389
0.801984
0.777373
0.754357
0.732773
0.712473
0.69342
0.674052
0.542216
0.583944
0.650225
0.75172
0.89179
1.0515
1.18746
1.26601
1.28993
1.2802
1.25074
1.21043
1.16704
1.1236
1.08161
1.04175
1.00423
0.969026
0.935923
0.90508
0.876101
0.848863
0.823223
0.799048
0.77623
0.754661
0.734246
0.714885
0.696615
0.677732
0.541484
0.57978
0.635978
0.713221
0.81054
0.917225
1.01302
1.08165
1.11951
1.13249
1.12862
1.11381
1.09111
1.06469
1.03641
1.0075
0.978711
0.950467
0.922993
0.896508
0.871042
0.846628
0.82326
0.800921
0.779578
0.759191
0.73972
0.7211
0.703467
0.684836
0.542281
0.581787
0.635226
0.701634
0.778426
0.858969
0.932952
0.991615
1.03126
1.05321
1.06069
1.05789
1.04807
1.03214
1.01269
0.991063
0.968222
0.944817
0.921283
0.897953
0.87503
0.852652
0.830907
0.809852
0.789518
0.769912
0.751044
0.732858
0.715633
0.696899
0.545327
0.592338
0.650605
0.715981
0.784978
0.853164
0.915021
0.965831
1.00311
1.02699
1.03901
1.04105
1.03719
1.02736
1.01271
0.995273
0.975945
0.955424
0.934226
0.912743
0.891262
0.869991
0.849078
0.828625
0.80871
0.789369
0.770655
0.752483
0.735372
0.716035
0.552019
0.616154
0.688706
0.761766
0.831207
0.894524
0.949461
0.994033
1.02722
1.04927
1.06115
1.06405
1.0615
1.05371
1.04071
1.02472
1.00659
0.986992
0.966457
0.945398
0.924134
0.902905
0.881891
0.861219
0.840999
0.821267
0.802141
0.783415
0.766065
0.745422
0.565508
0.66353
0.764135
0.854369
0.930521
0.992867
1.04268
1.08075
1.10784
1.12496
1.13298
1.13309
1.12877
1.11884
1.10451
1.08731
1.06802
1.04726
1.02555
1.00329
0.980804
0.95833
0.936065
0.914133
0.892677
0.871685
0.851415
0.831325
0.813329
0.790346
0.594091
0.759583
0.910864
1.02911
1.1155
1.17655
1.21928
1.24769
1.26471
1.27269
1.27212
1.26654
1.25501
1.23933
1.22028
1.19877
1.17549
1.15102
1.12582
1.10026
1.07465
1.04919
1.0241
0.999446
0.975454
0.951924
0.929503
0.906762
0.887648
0.860676
0.664563
0.976213
1.21695
1.37178
1.46356
1.51347
1.53978
1.54915
1.54742
1.53948
1.52372
1.50383
1.48012
1.45348
1.42463
1.39421
1.36277
1.33076
1.29856
1.26646
1.23474
1.20354
1.17309
1.14331
1.11469
1.08642
1.0603
1.03255
1.01173
0.977808
0.896633
1.57516
1.95305
2.12143
2.18223
2.18332
2.16748
2.13394
2.09407
2.05181
2.00698
1.9607
1.91327
1.86523
1.81706
1.76903
1.72141
1.67443
1.62833
1.58326
1.53949
1.49693
1.45606
1.41616
1.37875
1.34099
1.30822
1.27031
1.24662
1.19949
2.25131
3.88545
4.20057
4.15382
4.01939
3.85031
3.69654
3.55538
3.42545
3.30491
3.19135
3.08337
2.97978
2.8808
2.78671
2.69648
2.60973
2.52629
2.44619
2.36933
2.29599
2.22553
2.15917
2.09431
2.03568
1.97431
1.9257
1.86329
1.83068
1.75317
25.3732
18.8418
15.4828
13.5917
12.3732
11.5095
10.8357
10.2736
9.78206
9.33794
8.92898
8.54832
8.19201
7.85816
7.54508
7.25087
6.97435
6.71456
6.47063
6.24156
6.02671
5.82445
5.63566
5.45538
5.29169
5.12559
4.99176
4.82372
4.73904
4.52354
0.54819
0.613623
0.743923
1.02292
1.81025
3.95537
5.8822
4.05737
3.14668
2.5328
2.11836
1.82835
1.61765
1.45898
1.33548
1.23646
1.15501
1.08654
1.02783
0.956667
0.915379
0.878344
0.844862
0.814394
0.78651
0.76085
0.737124
0.715082
0.694597
0.674114
0.547317
0.609153
0.728271
0.978187
1.61334
3.18809
4.58042
3.45548
2.84115
2.36079
2.01344
1.76035
1.57132
1.42612
1.31143
1.21846
1.14132
1.07602
1.0197
0.949436
0.909727
0.873939
0.84145
0.811776
0.784529
0.759382
0.73607
0.714365
0.694155
0.673893
0.545795
0.601544
0.703989
0.906301
1.33423
2.01828
2.56857
2.57998
2.32467
2.04575
1.81189
1.62534
1.47728
1.35847
1.26148
1.18085
1.1126
1.05387
1.00255
0.936614
0.899723
0.866172
0.835471
0.807233
0.781142
0.756927
0.73437
0.713278
0.693572
0.673708
0.54399
0.592725
0.676871
0.823801
1.05191
1.47565
1.79385
1.89802
1.83788
1.71317
1.58264
1.46402
1.36109
1.27297
1.19742
1.13215
1.07519
1.02494
0.98013
0.920956
0.887581
0.856848
0.828414
0.802004
0.777389
0.75437
0.732784
0.712483
0.693428
0.674058
0.542295
0.584562
0.652921
0.760068
0.910553
1.15265
1.35181
1.4588
1.47423
1.43737
1.37735
1.31154
1.24704
1.18684
1.13178
1.08175
1.03628
0.994818
0.956855
0.905609
0.875926
0.84817
0.82214
0.797676
0.774637
0.752893
0.732344
0.712884
0.694532
0.675652
0.541119
0.578789
0.635943
0.717572
0.823504
0.940816
1.04574
1.11773
1.15397
1.16199
1.15302
1.13202
1.10443
1.07388
1.04225
1.01067
0.979757
0.949859
0.92108
0.893669
0.867462
0.84248
0.81868
0.796015
0.774433
0.753874
0.734288
0.715603
0.697907
0.679407
0.540866
0.576884
0.628099
0.695295
0.77647
0.863669
0.943926
1.00592
1.04577
1.06561
1.06996
1.06412
1.05042
1.03146
1.0095
0.985874
0.961446
0.936804
0.91231
0.888273
0.864833
0.842093
0.82011
0.798915
0.778517
0.75891
0.740085
0.721995
0.704821
0.686479
0.542006
0.580449
0.631404
0.692825
0.761713
0.832709
0.898398
0.952223
0.991005
1.01499
1.02621
1.02714
1.0219
1.01041
0.994659
0.976301
0.956276
0.935269
0.913772
0.892156
0.870673
0.849503
0.82877
0.808559
0.788931
0.769915
0.75154
0.73376
0.716898
0.698374
0.545274
0.592003
0.649287
0.712346
0.777451
0.840777
0.898061
0.94561
0.981463
1.0055
1.01881
1.02278
1.02061
1.01337
1.00087
0.985392
0.967814
0.948832
0.928974
0.908649
0.888162
0.86774
0.847548
0.827707
0.808311
0.789407
0.771065
0.753198
0.736375
0.717185
0.552088
0.616393
0.688845
0.761119
0.828846
0.889686
0.941964
0.984336
1.01615
1.03767
1.04975
1.05337
1.05144
1.04481
1.03297
1.01808
1.00098
0.982322
0.962634
0.942329
0.921729
0.901081
0.880571
0.860336
0.840491
0.821081
0.802235
0.783736
0.766619
0.746077
0.565624
0.664042
0.765043
0.85535
0.93099
0.992207
1.04052
1.07708
1.10295
1.11922
1.12689
1.12698
1.12274
1.11312
1.09929
1.08262
1.06387
1.04364
1.02243
1.00063
0.978574
0.956489
0.934572
0.912949
0.891767
0.871013
0.850959
0.831037
0.813237
0.790328
0.594202
0.760179
0.91214
1.03096
1.1175
1.17814
1.22001
1.24729
1.26326
1.2702
1.26912
1.26298
1.25109
1.23532
1.21633
1.19496
1.17189
1.14767
1.12274
1.09745
1.07211
1.04691
1.02206
0.997627
0.973842
0.950495
0.92825
0.905641
0.886697
0.859794
0.664645
0.976796
1.2184
1.37409
1.46638
1.51621
1.54196
1.55023
1.54771
1.53852
1.52186
1.50122
1.47693
1.44991
1.42083
1.39032
1.35888
1.32694
1.29486
1.26292
1.23137
1.20035
1.17009
1.14048
1.11204
1.08392
1.05796
1.03033
1.00964
0.975846
0.896677
1.57574
1.95464
2.12397
2.18534
2.1862
2.16985
2.13517
2.09412
2.05057
2.00461
1.9574
1.90926
1.86069
1.81214
1.76389
1.71617
1.66918
1.62315
1.57821
1.53459
1.49221
1.45151
1.41179
1.37455
1.33695
1.30432
1.26663
1.24273
1.19627
2.25132
3.88612
4.20221
4.15569
4.02129
3.85121
3.69605
3.55322
3.42168
3.29969
3.18495
3.07608
2.97199
2.87246
2.77801
2.68761
2.60084
2.51751
2.4376
2.36096
2.28787
2.21767
2.15157
2.08693
2.02852
1.96736
1.91873
1.85736
1.8205
1.7506
25.3732
18.8409
15.4786
13.5827
12.3585
11.4892
10.8107
10.2453
9.75192
9.30725
8.89874
8.51922
8.16443
7.8321
7.52061
7.22794
6.95283
6.69428
6.4514
6.22317
6.00898
5.8072
5.61876
5.43866
5.27505
5.10916
4.97421
4.81057
4.70736
4.52082
0.54511
0.597675
0.689592
0.855697
1.12337
1.59349
1.96532
1.78321
1.71099
1.60766
1.50197
1.40383
1.31632
1.23943
1.17202
1.11268
1.06009
1.01311
0.970608
0.932362
0.897472
0.865478
0.835987
0.808683
0.783303
0.759634
0.737498
0.716726
0.697282
0.677495
0.544503
0.594749
0.680849
0.830771
1.06416
1.4776
1.80385
1.65043
1.61241
1.53439
1.44753
1.363
1.28541
1.21577
1.15372
1.0984
1.04888
1.00427
0.963634
0.926852
0.893125
0.862061
0.833319
0.806623
0.781737
0.758473
0.736668
0.716169
0.696949
0.677343
0.543451
0.589752
0.666509
0.792682
0.976856
1.2004
1.37588
1.45291
1.45117
1.41515
1.356
1.29302
1.23168
1.17425
1.1214
1.07308
1.02895
0.988525
0.95123
0.917071
0.885436
0.856052
0.828669
0.803075
0.779091
0.756566
0.735367
0.715364
0.696558
0.677274
0.542221
0.583972
0.650313
0.751939
0.89214
1.05208
1.18828
1.26695
1.29085
1.28101
1.2514
1.21097
1.16747
1.12394
1.08188
1.04196
1.0044
0.969159
0.936029
0.905164
0.876168
0.848918
0.823268
0.799085
0.77626
0.754686
0.734267
0.714902
0.69663
0.677744
0.541121
0.5788
0.635974
0.717641
0.823617
0.941
1.04599
1.11803
1.15427
1.16226
1.15327
1.13222
1.1046
1.07402
1.04236
1.01076
0.97983
0.949917
0.921128
0.893707
0.867493
0.842506
0.818701
0.796032
0.774447
0.753886
0.734298
0.715612
0.697914
0.679413
0.540479
0.57557
0.626341
0.694199
0.777348
0.867274
0.950067
1.01335
1.05319
1.07203
1.07501
1.06783
1.05253
1.03231
1.00932
0.984841
0.959739
0.934583
0.909706
0.885402
0.86176
0.838866
0.81677
0.795499
0.775058
0.755432
0.736608
0.718536
0.70137
0.683146
0.540647
0.575598
0.623642
0.683768
0.753313
0.826376
0.894466
0.949948
0.989325
1.01296
1.0233
1.0232
1.01686
1.00409
0.987496
0.96845
0.947893
0.926488
0.904708
0.882914
0.861331
0.840126
0.819411
0.799262
0.779728
0.76083
0.742588
0.724967
0.708212
0.690052
0.542082
0.580494
0.630312
0.688471
0.751608
0.815268
0.874116
0.923418
0.960606
0.985413
0.999039
1.0031
1.00075
0.993224
0.980649
0.965128
0.947583
0.928716
0.909045
0.888969
0.868781
0.848697
0.828872
0.809421
0.790424
0.77193
0.753988
0.736553
0.720018
0.701599
0.545525
0.592867
0.650277
0.712275
0.774772
0.834346
0.887744
0.932274
0.966455
0.990129
1.00409
1.00942
1.00841
1.00315
0.992477
0.978635
0.962545
0.944887
0.92619
0.906871
0.887247
0.867563
0.847998
0.828689
0.809739
0.791209
0.77318
0.755559
0.738992
0.719847
0.55241
0.617665
0.690974
0.763473
0.830427
0.889558
0.939656
0.979959
1.01025
1.03091
1.04276
1.04668
1.04508
1.03917
1.02817
1.01413
0.997827
0.979917
0.960911
0.941218
0.921162
0.90099
0.880895
0.861018
0.841482
0.822332
0.803712
0.785382
0.768475
0.747938
0.565937
0.665416
0.767666
0.858927
0.934819
0.995481
1.04264
1.07777
1.10232
1.11749
1.12447
1.12425
1.11978
1.1101
1.09648
1.08011
1.06169
1.0418
1.02094
0.999478
0.977733
0.955937
0.934283
0.912897
0.891926
0.871356
0.85147
0.831665
0.814047
0.791125
0.594453
0.761456
0.914851
1.03504
1.12239
1.1831
1.22434
1.25051
1.26532
1.27093
1.26912
1.26204
1.24955
1.23336
1.21415
1.19269
1.16963
1.14548
1.12067
1.09553
1.07035
1.04532
1.02064
0.996373
0.972745
0.949535
0.927433
0.904909
0.886137
0.859231
0.66481
0.97788
1.22099
1.37822
1.47158
1.52168
1.547
1.55411
1.55065
1.53992
1.52209
1.50035
1.47518
1.44747
1.41791
1.38706
1.35543
1.3234
1.29132
1.25943
1.22797
1.19706
1.16694
1.13746
1.10916
1.08117
1.05535
1.02781
1.00727
0.97354
0.896756
1.57664
1.95706
2.12782
2.19014
2.19092
2.17403
2.13805
2.09554
2.05033
2.0029
1.9544
1.90524
1.85583
1.80666
1.75799
1.71
1.66289
1.61683
1.57194
1.52843
1.48618
1.44565
1.40608
1.36904
1.33158
1.29912
1.26161
1.23766
1.19158
2.25133
3.88698
4.20428
4.15807
4.02371
3.85235
3.69538
3.55038
3.41669
3.2927
3.1763
3.06613
2.96119
2.86087
2.76586
2.67515
2.58828
2.50499
2.42525
2.34886
2.27607
2.20616
2.14039
2.07603
2.01794
1.95702
1.90859
1.84767
1.81022
1.74142
25.3732
18.8399
15.4734
13.5714
12.3395
11.4625
10.7771
10.2063
9.70935
9.26279
8.85379
8.47479
8.12122
7.79035
7.48054
7.18965
6.91627
6.65934
6.41792
6.19096
5.97786
5.77696
5.5893
5.40971
5.24668
5.08095
4.94649
4.78285
4.67921
4.49382
0.543303
0.588126
0.658218
0.764752
0.911942
1.07634
1.21412
1.30175
1.32118
1.30735
1.27402
1.2316
1.18648
1.14158
1.0983
1.05726
1.01866
0.982513
0.948603
0.916893
0.887171
0.859249
0.832992
0.808267
0.784954
0.762935
0.742112
0.722375
0.703795
0.684449
0.542915
0.586337
0.653382
0.753171
0.888336
1.03785
1.16563
1.25066
1.27668
1.26915
1.24388
1.20733
1.16708
1.12608
1.08589
1.04731
1.01068
0.976099
0.943455
0.912768
0.883872
0.85663
0.830931
0.806666
0.783733
0.762027
0.741465
0.721943
0.703544
0.684342
0.542249
0.583282
0.645254
0.734291
0.850865
0.981327
1.09464
1.16955
1.20235
1.20528
1.1917
1.16494
1.13293
1.09862
1.06383
1.02958
0.996438
0.964664
0.934295
0.905454
0.878056
0.852048
0.827366
0.80394
0.781699
0.760567
0.740479
0.721351
0.703284
0.684339
0.54149
0.579806
0.636052
0.713394
0.810833
0.917675
1.01362
1.08234
1.12022
1.13315
1.1292
1.11431
1.09153
1.06504
1.03669
1.00774
0.978901
0.950623
0.92312
0.896612
0.871128
0.846699
0.823318
0.800969
0.779619
0.759225
0.739749
0.721124
0.703487
0.684853
0.540869
0.576898
0.628136
0.695374
0.776603
0.863871
0.944194
1.00624
1.0461
1.06593
1.07025
1.06438
1.05064
1.03164
1.00966
0.986005
0.961555
0.936895
0.912386
0.888336
0.864885
0.842136
0.820147
0.798946
0.778543
0.758931
0.740103
0.722011
0.704834
0.68649
0.540648
0.575604
0.623655
0.683795
0.753358
0.826442
0.894553
0.950051
0.989435
1.01307
1.0234
1.0233
1.01694
1.00416
0.987558
0.968503
0.947938
0.926526
0.90474
0.882941
0.861354
0.840145
0.819427
0.799276
0.779739
0.76084
0.742597
0.724974
0.708218
0.690057
0.54114
0.577094
0.624692
0.681406
0.744013
0.807898
0.867349
0.917254
0.954847
0.979822
0.993443
0.997422
0.99493
0.987207
0.974549
0.958949
0.941356
0.922472
0.902816
0.882786
0.862669
0.842673
0.82295
0.803609
0.784729
0.766356
0.748535
0.731231
0.714787
0.696608
0.542783
0.582964
0.633833
0.691229
0.751332
0.810278
0.864141
0.909608
0.944791
0.969342
0.984018
0.989988
0.989277
0.9844
0.974209
0.960717
0.944991
0.927711
0.909406
0.890489
0.871274
0.852001
0.832846
0.813943
0.795391
0.777253
0.759597
0.742367
0.726064
0.707557
0.546318
0.595856
0.655249
0.718123
0.779899
0.837327
0.887928
0.929869
0.962221
0.984971
0.998803
1.00466
1.00419
0.999938
0.990511
0.977686
0.962572
0.945803
0.927896
0.909263
0.890227
0.871039
0.85189
0.832923
0.814253
0.795945
0.778098
0.760592
0.744201
0.72492
0.553189
0.620778
0.696579
0.770931
0.838552
0.8971
0.945757
0.984299
1.01298
1.0324
1.04348
1.04709
1.04538
1.03949
1.02881
1.01512
0.999202
0.981673
0.963031
0.943673
0.923915
0.904005
0.884135
0.864448
0.84507
0.826046
0.807536
0.789256
0.772492
0.751793
0.566612
0.668339
0.773298
0.866951
0.944303
1.00528
1.05178
1.08566
1.10878
1.12255
1.12838
1.1275
1.12227
1.11197
1.09815
1.08165
1.06319
1.04333
1.02253
1.00115
0.979504
0.957807
0.936251
0.914953
0.894065
0.873558
0.853745
0.833948
0.816468
0.793382
0.594963
0.763971
0.920092
1.04291
1.13213
1.19358
1.23456
1.25967
1.27317
1.27711
1.27425
1.26576
1.25224
1.23517
1.21533
1.19341
1.17003
1.14566
1.12072
1.09551
1.07031
1.04528
1.02063
0.996402
0.972827
0.949655
0.927627
0.905095
0.886477
0.859438
0.665131
0.979878
1.22559
1.38544
1.4807
1.53157
1.55666
1.56252
1.55795
1.54529
1.5259
1.50261
1.47613
1.44733
1.4169
1.3854
1.35329
1.32092
1.28861
1.25659
1.22507
1.19415
1.16405
1.13462
1.1064
1.07846
1.05276
1.02523
1.00486
0.971088
0.896904
1.57814
1.96091
2.13385
2.19765
2.19855
2.18109
2.1436
2.09926
2.05194
2.00257
1.95232
1.9017
1.85109
1.80097
1.75159
1.7031
1.65567
1.60944
1.56448
1.52098
1.4788
1.4384
1.39895
1.36208
1.32475
1.29249
1.2551
1.23123
1.18541
2.25136
3.88815
4.20706
4.16123
4.02691
3.85387
3.69451
3.54668
3.41013
3.28347
3.16481
3.05281
2.94657
2.84516
2.74935
2.65814
2.57104
2.48774
2.40815
2.33201
2.25955
2.18999
2.12464
2.06062
2.00297
1.94234
1.89431
1.83371
1.79635
1.72803
25.3732
18.8386
15.467
13.5569
12.3148
11.4271
10.7317
10.153
9.65005
9.19979
8.78895
8.40959
8.05673
7.72716
7.4191
7.13023
6.85897
6.60414
6.36471
6.13959
5.92818
5.72874
5.54246
5.36393
5.20206
5.03696
4.90352
4.74036
4.63696
4.4527
0.543318
0.58648
0.647266
0.727741
0.826617
0.932455
1.02693
1.09721
1.13546
1.14878
1.14496
1.13097
1.10885
1.08278
1.05464
1.02565
0.996623
0.967994
0.940078
0.913086
0.88711
0.862187
0.838314
0.815478
0.793652
0.772797
0.752883
0.733825
0.715845
0.696555
0.543089
0.585448
0.644636
0.722014
0.815934
0.916039
1.00609
1.07417
1.11328
1.12881
1.1274
1.11633
1.09661
1.07264
1.04626
1.01876
0.990947
0.963342
0.936282
0.910001
0.884617
0.860185
0.836723
0.814229
0.79269
0.772076
0.752362
0.733473
0.715637
0.696461
0.542702
0.583706
0.640197
0.712432
0.798257
0.88948
0.97227
1.03577
1.07544
1.09429
1.09718
1.09017
1.07492
1.0546
1.03133
1.00644
0.980821
0.955062
0.929547
0.904555
0.880246
0.856709
0.833994
0.812126
0.791111
0.770934
0.751589
0.733007
0.715435
0.696459
0.542285
0.581808
0.635281
0.701758
0.77864
0.85929
0.933372
0.992105
1.03178
1.05371
1.06115
1.05831
1.04843
1.03245
1.01295
0.991286
0.968411
0.944975
0.921416
0.898064
0.875123
0.85273
0.830973
0.809907
0.789565
0.769952
0.751077
0.732887
0.715657
0.696919
0.542009
0.580462
0.631437
0.692894
0.76183
0.832882
0.898625
0.952492
0.991294
1.01528
1.02648
1.02739
1.02213
1.01061
0.994827
0.976446
0.956399
0.935374
0.913861
0.892231
0.870736
0.849556
0.828815
0.808598
0.788964
0.769943
0.751564
0.73378
0.716916
0.698388
0.542083
0.580501
0.630328
0.688504
0.751662
0.815349
0.874222
0.923545
0.960744
0.985554
0.999175
1.00323
1.00086
0.993327
0.98074
0.965206
0.947652
0.928775
0.909096
0.889012
0.868818
0.848728
0.828899
0.809444
0.790444
0.771947
0.754002
0.736566
0.720029
0.701607
0.542784
0.582967
0.633839