/*--------------------------------*- C++ -*----------------------------------*\
  =========                 |
  \\      /  F ield         | OpenFOAM: The Open Source CFD Toolbox
   \\    /   O peration     | Website:  https://openfoam.org
    \\  /    A nd           | Version:  10
     \\/     M anipulation  |
\*---------------------------------------------------------------------------*/
FoamFile
{
    format      ascii;
    class       volScalarField;
    location    "400";
    object      p;
}
// * * * * * * * * * * * * * * * * * * * * * * * * * * * * * * * * * * * * * //

dimensions      [0 2 -2 0 0 0 0];

internalField   nonuniform List<scalar> 
27507
(
122.459
192.004
293.565
508.692
-49.6674
-31.6703
-19.484
-11.6449
-6.59403
-3.40343
-1.42642
-0.203534
0.591605
1.22699
1.18651
0.951738
0.906247
0.829487
0.739083
0.654583
0.576567
0.500097
0.45664
0.321822
0.682683
106.24
158.937
260.389
437.831
-48.4726
-30.1523
-18.4476
-10.996
-6.22215
-3.20557
-1.3297
-0.165381
0.585245
1.14881
1.15077
0.949711
0.897471
0.821641
0.732138
0.6479
0.570036
0.495041
0.446496
0.333337
0.630664
86.852
110.731
193.451
316.684
-67.7943
-41.9978
-25.5024
-15.6272
-9.36022
-5.31855
-2.73227
-1.10015
-0.0739095
0.587094
1.05609
1.08847
0.928279
0.873796
0.798949
0.71255
0.630533
0.554373
0.481165
0.431003
0.323935
0.591409
69.6161
72.6659
113.141
184.882
206.484
9.80948
-114.983
-59.6466
-33.3758
-19.9599
-12.1834
-7.3174
-4.16888
-2.12502
-0.809958
0.0327287
0.580804
0.924788
1.00282
0.891223
0.83757
0.764395
0.682771
0.604396
0.531038
0.460253
0.40935
0.306624
0.539899
53.4687
51.921
59.7355
71.8667
78.1138
14.7927
-61.353
-58.1891
-36.0219
-21.7791
-13.2626
-8.06064
-4.781
-2.66196
-1.27908
-0.377385
0.209283
0.576117
0.773321
0.902031
0.836547
0.787194
0.717403
0.642159
0.568991
0.499789
0.432444
0.381632
0.283841
0.477679
39.1986
38.0837
38.1662
38.8919
21.4205
0.265337
-25.6136
-25.9554
-18.6848
-11.9431
-7.4689
-4.52335
-2.56641
-1.27325
-0.423972
0.127084
0.477423
0.677022
0.796797
0.805181
0.77027
0.720901
0.658136
0.591026
0.524602
0.460981
0.398268
0.34857
0.256824
0.408686
27.8554
26.7042
25.1954
22.1164
12.3554
-3.90381
-12.9546
-15.6394
-11.8198
-8.1225
-5.36332
-3.33415
-1.90472
-0.927253
-0.269525
0.164038
0.441484
0.603409
0.677661
0.708295
0.683169
0.640809
0.587816
0.530123
0.471902
0.415253
0.358461
0.31112
0.2269
0.336686
19.6028
18.3433
16.2353
12.253
5.62165
-2.84502
-8.00067
-9.41687
-7.6519
-5.60504
-3.83975
-2.43661
-1.40128
-0.670822
-0.167452
0.169964
0.387601
0.516873
0.581995
0.600782
0.583073
0.55009
0.507587
0.460303
0.41159
0.363246
0.313748
0.270251
0.195317
0.265334
13.9934
12.655
10.3591
6.52946
1.83877
-2.96051
-5.65524
-6.32432
-5.34774
-4.06424
-2.86919
-1.87508
-1.11105
-0.553519
-0.159272
0.111422
0.2897
0.398647
0.456755
0.476915
0.469898
0.448297
0.417658
0.382039
0.344125
0.305413
0.264659
0.22672
0.163081
0.197887
10.4809
9.04454
6.678
3.30744
-0.0344337
-2.89585
-4.36628
-4.63158
-3.98968
-3.12092
-2.27841
-1.55286
-0.976692
-0.54089
-0.223075
0.00201665
0.155656
0.254522
0.312266
0.339444
0.344432
0.335774
0.318356
0.295586
0.269673
0.241889
0.21138
0.180901
0.130811
0.136935
8.55038
6.99966
4.6123
1.76694
-0.676061
-2.50185
-3.39107
-3.51191
-3.09486
-2.50675
-1.91165
-1.38096
-0.94356
-0.599381
-0.338185
-0.145326
-0.00683276
0.0888083
0.151289
0.188549
0.207005
0.212731
0.209737
0.20088
0.188058
0.172419
0.153648
0.132638
0.0985815
0.0842191
7.73202
6.0959
3.80435
1.48802
-0.375158
-1.70679
-2.40237
-2.57427
-2.38366
-2.03947
-1.65448
-1.28792
-0.967086
-0.700394
-0.486504
-0.319032
-0.190562
-0.0943185
-0.0242024
0.0251319
0.058259
0.0794308
0.0917764
0.0976861
0.0988457
0.0963881
0.0907226
0.0811595
0.065758
0.040481
7.59678
5.98945
3.99168
2.15855
0.633244
-0.535245
-1.27532
-1.63277
-1.70233
-1.60682
-1.42909
-1.22096
-1.01276
-0.820911
-0.652354
-0.508558
-0.388554
-0.290355
-0.21146
-0.149159
-0.100779
-0.0636112
-0.0354062
-0.0142143
0.00149524
0.0129188
0.0214076
0.0250219
0.0307514
0.00523819
7.71837
6.3839
4.86624
3.42055
2.06757
0.890461
-0.012203
-0.62418
-0.980194
-1.14781
-1.18715
-1.14474
-1.05525
-0.942698
-0.822652
-0.704707
-0.594516
-0.495152
-0.407927
-0.332938
-0.269526
-0.216468
-0.17242
-0.13592
-0.105558
-0.0800895
-0.0570106
-0.0389997
-0.0106036
-0.024633
7.65369
6.91466
5.9112
4.76555
3.53686
2.33236
1.26769
0.411
-0.219489
-0.645465
-0.903338
-1.03195
-1.06745
-1.04023
-0.973923
-0.886
-0.788847
-0.690866
-0.597416
-0.511573
-0.434779
-0.367333
-0.308781
-0.258271
-0.214455
-0.176153
-0.139854
-0.107468
-0.0583612
-0.0521746
7.52528
7.22319
6.591
5.68818
4.60566
3.44493
2.31847
1.32106
0.506795
-0.111458
-0.54701
-0.826413
-0.981452
-1.04357
-1.04033
-0.994078
-0.922043
-0.83691
-0.747574
-0.659902
-0.577448
-0.50209
-0.434443
-0.374433
-0.321092
-0.273452
-0.227762
-0.184799
-0.120038
-0.089808
106.187
158.855
260.305
436.493
-48.2612
-30.0288
-18.4097
-10.9852
-6.219
-3.20472
-1.32973
-0.166028
0.583847
1.14676
1.14997
0.949332
0.897299
0.821556
0.732092
0.647873
0.570017
0.495024
0.446479
0.333318
0.630648
94.5615
131.208
228.781
380.41
-46.3626
-28.3339
-17.307
-10.3282
-5.85195
-3.0108
-1.23426
-0.127069
0.581889
1.08448
1.1176
0.944937
0.887258
0.812432
0.724148
0.640423
0.562928
0.489308
0.43663
0.345221
0.575413
79.51
92.9097
168.636
267.998
405.233
-70.525
-39.5699
-23.9662
-14.6685
-8.79187
-4.99816
-2.56032
-1.01373
-0.0377377
0.586883
1.00475
1.05822
0.920521
0.862359
0.788724
0.703695
0.622433
0.546838
0.475038
0.421308
0.335019
0.538185
64.1299
64.7266
92.6828
159.583
178.115
53.0945
-116.802
-56.154
-31.6917
-18.9518
-11.5442
-6.92079
-3.93359
-1.99153
-0.738417
0.0657768
0.584953
0.891194
0.976964
0.8799
0.824494
0.752832
0.672684
0.595363
0.522824
0.453558
0.399698
0.315986
0.491427
49.5633
48.3802
53.2361
74.9433
62.5627
14.3948
-51.9852
-52.0578
-33.4408
-20.5684
-12.6023
-7.66917
-4.54445
-2.52185
-1.19951
-0.335479
0.226747
0.57755
0.757213
0.882937
0.822022
0.772472
0.704521
0.630841
0.559003
0.490867
0.425164
0.372052
0.291215
0.434755
36.5174
35.4463
34.5451
31.24
18.3362
0.709348
-22.4027
-23.2737
-17.0607
-11.0937
-6.97528
-4.22867
-2.39371
-1.17636
-0.374796
0.146388
0.477467
0.666603
0.784165
0.787564
0.753332
0.70504
0.644022
0.578602
0.513744
0.451404
0.390447
0.339128
0.262085
0.371824
26.0858
24.9103
22.954
18.9127
10.511
-3.82157
-11.7579
-14.181
-10.9714
-7.61283
-5.03799
-3.13447
-1.78646
-0.861148
-0.237555
0.17392
0.436847
0.589453
0.658625
0.687705
0.664807
0.623874
0.572669
0.516825
0.460339
0.405148
0.350197
0.301911
0.230026
0.30612
18.4721
17.2536
15.0638
10.9
4.82674
-2.84339
-7.47478
-8.75466
-7.22556
-5.32616
-3.66368
-2.33428
-1.3468
-0.646883
-0.16335
0.161652
0.371697
0.496661
0.559425
0.579115
0.56352
0.532285
0.491761
0.446442
0.399568
0.352811
0.305193
0.261387
0.196405
0.240972
13.2843
12.0251
9.7745
5.99317
1.57602
-2.84469
-5.36184
-5.97547
-5.10645
-3.90528
-2.77134
-1.82212
-1.08836
-0.550207
-0.168343
0.094861
0.268971
0.376093
0.433931
0.455128
0.44998
0.430297
0.401682
0.368032
0.331974
0.294908
0.256011
0.21833
0.162342
0.179351
10.0361
8.69782
6.4163
3.14974
-0.0520136
-2.74554
-4.15674
-4.41628
-3.83803
-3.02149
-2.21943
-1.52429
-0.968971
-0.546813
-0.237495
-0.0173875
0.133731
0.231819
0.28996
0.318326
0.325088
0.318311
0.302815
0.281915
0.257783
0.231624
0.202877
0.173127
0.128556
0.123622
8.26102
6.81789
4.52745
1.781
-0.58445
-2.34139
-3.21932
-3.35677
-2.98441
-2.43435
-1.86956
-1.36184
-0.940415
-0.606953
-0.352485
-0.163561
-0.0270201
0.0680745
0.130965
0.169282
0.18923
0.196585
0.195272
0.188078
0.176865
0.162746
0.145567
0.125641
0.0952088
0.0753756
7.52753
6.00226
3.80421
1.56248
-0.254343
-1.55748
-2.25766
-2.45089
-2.29348
-1.97864
-1.61769
-1.2696
-0.962141
-0.704705
-0.496879
-0.33315
-0.206726
-0.111301
-0.0411431
0.00882497
0.0429805
0.0653728
0.0790396
0.0863025
0.0888132
0.0876888
0.0833736
0.0751185
0.0617434
0.0352749
7.43438
5.9349
4.01446
2.23129
0.737591
-0.414842
-1.15943
-1.53314
-1.62569
-1.55196
-1.39291
-1.19977
-1.00299
-0.819468
-0.656736
-0.516845
-0.399282
-0.302424
-0.22406
-0.161709
-0.112869
-0.0749874
-0.045905
-0.0237411
-0.00700596
0.00550004
0.0150431
0.0200507
0.0265623
0.00279516
7.5756
6.33198
4.86775
3.45658
2.13064
0.970163
0.0704
-0.548198
-0.916804
-1.09833
-1.15083
-1.1199
-1.0398
-0.934594
-0.820093
-0.706193
-0.598833
-0.501339
-0.41524
-0.340811
-0.277532
-0.224306
-0.179872
-0.142834
-0.11183
-0.0855978
-0.0618118
-0.0425049
-0.0142038
-0.0250016
7.54243
6.8406
5.8697
4.75112
3.54787
2.36402
1.31205
0.46043
-0.171155
-0.601915
-0.86646
-1.00237
-1.04493
-1.02403
-0.963099
-0.879569
-0.785874
-0.690515
-0.598968
-0.514435
-0.43847
-0.371475
-0.313083
-0.262504
-0.218458
-0.179753
-0.143071
-0.109768
-0.0610565
-0.0515964
7.43044
7.13469
6.5204
5.63654
4.57394
3.43305
2.32349
1.33833
0.531387
-0.0836752
-0.519128
-0.800534
-0.958787
-1.02463
-1.02514
-0.982392
-0.913436
-0.830892
-0.743648
-0.657601
-0.576358
-0.501854
-0.434766
-0.375069
-0.321848
-0.274142
-0.228315
-0.184922
-0.120401
-0.0885551
86.8069
110.6
193.3
315.603
-67.3104
-41.381
-25.2942
-15.553
-9.33432
-5.31004
-2.73033
-1.10081
-0.075552
0.584666
1.05207
1.08707
0.927631
0.873518
0.798824
0.712496
0.630511
0.554362
0.481156
0.43099
0.323919
0.591388
79.4853
92.8251
168.263
266.88
372.025
-69.5803
-39.6082
-23.912
-14.6327
-8.77667
-4.99277
-2.55911
-1.01429
-0.0389065
0.585355
1.00258
1.05741
0.920161
0.862207
0.788652
0.703664
0.622421
0.546833
0.475034
0.421304
0.335013
0.538175
68.6373
70.4044
122.891
187.663
228.456
-61.4313
-34.48
-20.6472
-12.5838
-7.54208
-4.28714
-2.17853
-0.825384
0.0375447
0.588626
0.934058
1.00243
0.892557
0.835226
0.763515
0.681974
0.603458
0.53002
0.460221
0.405855
0.324592
0.502721
55.7044
54.3356
66.3444
111.619
94.0099
28.0299
-86.2297
-84.6083
-48.2659
-27.8783
-16.6997
-10.1375
-6.05716
-3.42743
-1.7132
-0.599986
0.11904
0.581127
0.833681
0.925886
0.848379
0.794707
0.725783
0.64933
0.575063
0.504995
0.438002
0.384011
0.305351
0.458368
43.2617
41.8947
43.0525
45.3011
48.9463
3.34298
-36.2743
-40.3732
-28.2328
-17.9988
-11.1941
-6.8456
-4.05556
-2.24035
-1.04915
-0.267413
0.242875
0.559859
0.711261
0.835781
0.78716
0.740084
0.675631
0.60583
0.537334
0.471983
0.408844
0.356164
0.280413
0.404595
32.1563
31.0014
29.758
26.9423
13.902
-3.99908
-17.5303
-19.3185
-14.5541
-9.70507
-6.19394
-3.77846
-2.14034
-1.04385
-0.317295
0.157464
0.459731
0.632395
0.74126
0.744408
0.715398
0.670638
0.613569
0.552147
0.490863
0.43158
0.37346
0.323145
0.251202
0.344905
23.2408
22.1188
20.1996
16.0334
8.07761
-2.68791
-10.2614
-11.9326
-9.56045
-6.79986
-4.55286
-2.85321
-1.63375
-0.788826
-0.215789
0.164363
0.408243
0.550208
0.614985
0.643449
0.624866
0.588061
0.54105
0.489307
0.436554
0.384626
0.332736
0.285994
0.219171
0.282627
16.6697
15.5708
13.5271
9.5169
3.83396
-2.56687
-6.65002
-7.68653
-6.50177
-4.87643
-3.39253
-2.18607
-1.27823
-0.627939
-0.175455
0.130999
0.330665
0.45078
0.512483
0.534072
0.522758
0.495832
0.459603
0.418412
0.375332
0.331953
0.287539
0.245741
0.185709
0.220935
12.1655
11.0503
8.99596
5.44397
1.33207
-2.57634
-4.86774
-5.41271
-4.69941
-3.64427
-2.61813
-1.74632
-1.0646
-0.558972
-0.197146
0.0545444
0.222905
0.328204
0.386879
0.410832
0.409749
0.394288
0.369858
0.340212
0.307871
0.27418
0.238523
0.203198
0.151955
0.16267
9.3478
8.16301
6.08333
3.02802
0.0292703
-2.44058
-3.78189
-4.05115
-3.57293
-2.85158
-2.12323
-1.48243
-0.964114
-0.565797
-0.270945
-0.0589769
0.0884256
0.185845
0.245372
0.276501
0.286911
0.28399
0.27234
0.255144
0.234501
0.211577
0.185979
0.158789
0.118649
0.1101
7.82817
6.54132
4.43977
1.86607
-0.37096
-2.03332
-2.90349
-3.08004
-2.78405
-2.30476
-1.79616
-1.33055
-0.938458
-0.62448
-0.382147
-0.200195
-0.0669555
0.0274075
0.0913241
0.131836
0.154714
0.165279
0.167245
0.163275
0.155166
0.143999
0.129741
0.112412
0.0859823
0.0647476
7.23209
5.85955
3.82615
1.71517
-0.0185122
-1.2797
-1.99072
-2.22513
-2.12625
-1.86594
-1.54973
-1.23603
-0.953586
-0.713468
-0.517033
-0.360333
-0.237746
-0.143855
-0.0736031
-0.0224226
0.0136765
0.0384001
0.0545851
0.0644276
0.0695099
0.0709167
0.0691592
0.063363
0.0534355
0.0272537
7.20088
5.84072
4.05061
2.36133
0.927377
-0.197125
-0.947964
-1.35004
-1.48258
-1.44844
-1.32382
-1.15857
-0.98326
-0.815537
-0.663975
-0.531647
-0.41888
-0.324723
-0.247506
-0.185174
-0.135559
-0.0963907
-0.0656997
-0.0417345
-0.0230843
-0.00859058
0.00302568
0.0101839
0.0194602
-0.00289838
7.3631
6.22913
4.85584
3.51223
2.23683
1.10755
0.216489
-0.410953
-0.799497
-1.00475
-1.08054
-1.07042
-1.00778
-0.916539
-0.812822
-0.706967
-0.605381
-0.511819
-0.428191
-0.355099
-0.292295
-0.238916
-0.193874
-0.155906
-0.123738
-0.0961608
-0.0708877
-0.0498948
-0.0196353
-0.0285381
7.3461
6.70388
5.78883
4.71989
3.5619
2.41502
1.38704
0.546123
-0.0857477
-0.523847
-0.799492
-0.947931
-1.00286
-0.993244
-0.942056
-0.866591
-0.77933
-0.688916
-0.601013
-0.519027
-0.444711
-0.378649
-0.32063
-0.269987
-0.22554
-0.186157
-0.148605
-0.114186
-0.0643422
-0.0531103
7.24746
6.97447
6.39171
5.54304
4.51802
3.41409
2.33599
1.37366
0.580279
-0.0291032
-0.464746
-0.750271
-0.914886
-0.988012
-0.995839
-0.959879
-0.896888
-0.819357
-0.736163
-0.653263
-0.574362
-0.501512
-0.435503
-0.376409
-0.323405
-0.275591
-0.229425
-0.185448
-0.120564
-0.0877081
69.5959
72.3564
111.743
184.571
204.158
-152.112
-59.2719
-33.2006
-19.8535
-12.1255
-7.28995
-4.15807
-2.12261
-0.811361
0.0302569
0.577895
0.919776
1.00114
0.89051
0.837283
0.764291
0.682752
0.604412
0.531064
0.460277
0.409364
0.306623
0.539883
64.1197
64.6142
91.9259
158.816
176.834
46.9387
-122.749
-56.3701
-31.7103
-18.9124
-11.5085
-6.90104
-3.92532
-1.98971
-0.739728
0.0635673
0.582381
0.887641
0.975683
0.879391
0.8243
0.75276
0.672676
0.595382
0.522851
0.453584
0.399717
0.315995
0.49142
55.709
54.3306
66.2029
111.239
94.0454
24.8957
-85.9396
-84.7953
-48.2867
-27.8982
-16.6956
-10.1264
-6.04933
-3.42381
-1.7125
-0.600834
0.117775
0.579706
0.832011
0.925303
0.848178
0.794642
0.725767
0.649343
0.575087
0.505022
0.438027
0.38403
0.305363
0.45837
45.6976
43.9472
44.9666
51.0788
57.7014
4.66453
-49.991
-54.533
-36.8754
-22.6354
-13.7955
-8.39138
-4.9994
-2.81065
-1.37901
-0.442326
0.168138
0.562264
0.747728
0.853151
0.799946
0.750674
0.68566
0.614599
0.544948
0.478654
0.414849
0.361834
0.286228
0.416853
35.7246
34.3177
32.958
31.6779
17.5204
0.902994
-22.7927
-28.2656
-21.8683
-14.7265
-9.40972
-5.82366
-3.46223
-1.90651
-0.877741
-0.197958
0.248506
0.527707
0.647299
0.766416
0.734772
0.692566
0.633109
0.568971
0.505433
0.444255
0.384721
0.333682
0.261563
0.366554
26.8796
25.7324
23.9331
20.3142
10.5859
-3.28052
-12.9786
-14.6744
-11.6503
-8.0969
-5.28972
-3.26789
-1.86442
-0.910393
-0.271092
0.150449
0.420756
0.576891
0.677553
0.680952
0.659692
0.620402
0.569067
0.513469
0.457411
0.402646
0.34852
0.300512
0.232802
0.310764
19.7425
18.7295
16.844
12.8625
5.96338
-2.34823
-8.21556
-9.54006
-7.95759
-5.83417
-3.97894
-2.52887
-1.46673
-0.719812
-0.207465
0.135875
0.358233
0.489313
0.550808
0.579524
0.566926
0.536162
0.495203
0.449367
0.402009
0.354847
0.307269
0.263444
0.201407
0.252618
14.4239
13.4868
11.6599
7.98554
2.97776
-2.24449
-5.61293
-6.47294
-5.62408
-4.31355
-3.05356
-2.00404
-1.19911
-0.613102
-0.200513
0.0824202
0.269325
0.384001
0.44522
0.469597
0.464206
0.443448
0.413321
0.378008
0.340355
0.301857
0.261957
0.223573
0.168762
0.195113
10.7575
9.82556
8.03751
4.81902
1.15567
-2.19745
-4.19929
-4.70427
-4.17264
-3.30066
-2.41634
-1.64752
-1.03562
-0.574268
-0.239554
-0.0034456
0.157229
0.260244
0.320248
0.347986
0.352494
0.342936
0.32437
0.300366
0.273296
0.244435
0.213341
0.181769
0.136006
0.140939
8.47364
7.4821
5.67004
2.90375
0.186379
-2.02405
-3.26648
-3.56446
-3.2134
-2.61762
-1.9893
-1.42299
-0.955984
-0.591222
-0.316866
-0.116562
0.0253862
0.12165
0.182921
0.217704
0.233025
0.235393
0.229063
0.217036
0.201298
0.182966
0.1618
0.138504
0.103885
0.0922464
7.27182
6.18221
4.33094
1.99061
-0.0697466
-1.61492
-2.46943
-2.701
-2.5046
-2.12064
-1.68942
-1.28245
-0.931909
-0.645872
-0.421217
-0.249633
-0.121538
-0.0286352
0.0363579
0.0796341
0.106361
0.121251
0.127699
0.128183
0.124403
0.117393
0.107245
0.0937311
0.072606
0.0504886
6.84501
5.66646
3.85282
1.91925
0.300968
-0.903418
-1.62423
-1.91242
-1.89038
-1.70391
-1.4495
-1.18398
-0.937084
-0.721936
-0.542194
-0.396004
-0.279371
-0.188121
-0.118147
-0.0656076
-0.0270576
0.000733836
0.0203072
0.0336746
0.0423128
0.0472543
0.0490941
0.046808
0.0416866
0.0162749
6.88727
5.70497
4.0907
2.53057
1.1804
0.0965726
-0.658305
-1.09585
-1.2805
-1.29971
-1.22246
-1.09618
-0.951296
-0.806271
-0.670976
-0.549834
-0.444317
-0.354409
-0.279191
-0.217211
-0.166774
-0.126005
-0.0932095
-0.0668244
-0.0455552
-0.0283138
-0.0137863
-0.00363678
0.00965152
-0.0108919
7.07237
6.07865
4.8292
3.57943
2.3749
1.29089
0.415381
-0.221039
-0.634526
-0.871131
-0.978571
-0.997263
-0.959173
-0.887857
-0.799697
-0.705588
-0.612542
-0.524896
-0.445084
-0.374161
-0.312266
-0.258864
-0.213118
-0.173954
-0.140225
-0.110815
-0.0834602
-0.0601789
-0.026986
-0.0337118
7.07386
6.5097
5.67037
4.67013
3.57519
2.48057
1.48775
0.663719
0.0333124
-0.413649
-0.703914
-0.869394
-0.941476
-0.947702
-0.910342
-0.846427
-0.768459
-0.68525
-0.602707
-0.524516
-0.452701
-0.388104
-0.330729
-0.280091
-0.235145
-0.194863
-0.156101
-0.120196
-0.0686305
-0.0554906
6.99329
6.75085
6.21026
5.41015
4.4375
3.38517
2.35143
1.4217
0.648104
0.0473936
-0.387962
-0.678874
-0.852185
-0.935445
-0.953546
-0.927192
-0.872687
-0.802323
-0.724947
-0.646588
-0.571083
-0.500644
-0.436221
-0.378027
-0.325364
-0.277423
-0.230784
-0.186031
-0.120577
-0.0866988
53.7015
52.599
61.2551
87.787
72.67
15.6958
-54.3699
-59.2592
-36.1806
-21.7964
-13.2376
-8.03444
-4.76398
-2.65431
-1.27802
-0.379609
0.206724
0.573896
0.7699
0.900709
0.836044
0.78703
0.717391
0.642219
0.569077
0.499876
0.432518
0.381684
0.283866
0.477666
49.6753
48.6046
53.6779
77.0137
61.9676
14.2663
-49.6234
-52.4184
-33.614
-20.6005
-12.5924
-7.65185
-4.53193
-2.51607
-1.19903
-0.337806
0.224305
0.575299
0.754018
0.881787
0.821596
0.772343
0.70451
0.630893
0.559079
0.490945
0.425232
0.372103
0.291244
0.434752
43.3227
42.0044
43.2751
45.5557
49.2133
3.31488
-36.2534
-40.4857
-28.2939
-18.0179
-11.193
-6.83821
-4.04931
-2.23749
-1.04946
-0.26953
0.240788
0.557923
0.709179
0.835114
0.786945
0.740041
0.675653
0.60589
0.537406
0.472054
0.408906
0.356211
0.280442
0.404598
35.7536
34.369
33.0511
31.7851
17.6105
0.907218
-22.7943
-28.2903
-21.8877
-14.734
-9.41051
-5.82188
-3.46055
-1.90595
-0.878497
-0.199489
0.247154
0.526509
0.646416
0.76618
0.734709
0.69257
0.633137
0.569012
0.505477
0.444297
0.384757
0.333709
0.261578
0.366555
28.2511
27.0681
25.1995
21.7154
11.5009
-0.443824
-13.5832
-18.1576
-15.478
-11.1679
-7.44231
-4.71581
-2.83975
-1.57416
-0.725161
-0.157921
0.217776
0.455627
0.54807
0.682264
0.665986
0.630893
0.578169
0.521255
0.464156
0.408493
0.353676
0.305325
0.237422
0.320505
21.5913
20.6161
18.7919
14.9355
7.36154
-2.81051
-9.1481
-10.6077
-8.87839
-6.4457
-4.33263
-2.72407
-1.57007
-0.769099
-0.224488
0.138583
0.373286
0.511973
0.601553
0.602712
0.588481
0.556126
0.512226
0.464009
0.414631
0.365713
0.316723
0.272117
0.209408
0.269476
16.1701
15.3455
13.6728
9.99801
4.36578
-2.04264
-6.26629
-7.3784
-6.39976
-4.84923
-3.38942
-2.20202
-1.30734
-0.6644
-0.216286
0.0885312
0.288856
0.409727
0.469872
0.4999
0.494004
0.470674
0.437301
0.398851
0.35829
0.317192
0.275082
0.235299
0.178988
0.216369
12.0933
11.3553
9.82013
6.54798
2.3324
-1.87131
-4.52876
-5.27619
-4.71415
-3.71027
-2.68891
-1.81032
-1.11989
-0.605986
-0.237983
0.0186966
0.191547
0.300566
0.361913
0.389803
0.391386
0.378109
0.35547
0.327406
0.296494
0.264121
0.229879
0.196042
0.147536
0.163967
9.27669
8.5502
7.0664
4.23021
1.06693
-1.75533
-3.4566
-3.94433
-3.59114
-2.91247
-2.18614
-1.53482
-1.00352
-0.594407
-0.291728
-0.0741959
0.0772281
0.177425
0.238916
0.271038
0.282054
0.279523
0.268032
0.250895
0.230292
0.20742
0.181994
0.155281
0.116183
0.114773
7.54157
6.7613
5.24508
2.80743
0.406174
-1.54034
-2.67462
-3.01233
-2.79635
-2.33994
-1.82693
-1.34818
-0.942685
-0.618788
-0.369853
-0.1843
-0.0495684
0.0447522
0.107666
0.146461
0.16737
0.175915
0.175904
0.17009
0.160306
0.14761
0.13191
0.113553
0.0856748
0.0707997
6.66677
5.79259
4.21896
2.1446
0.287213
-1.1306
-1.96391
-2.25751
-2.17033
-1.89478
-1.55433
-1.21745
-0.917629
-0.666322
-0.464143
-0.306113
-0.18514
-0.0947662
-0.0291
0.0170038
0.0479753
0.0678115
0.079497
0.0852713
0.0866948
0.0847408
0.0796277
0.0708749
0.0562371
0.0334082
6.41149
5.44624
3.8797
2.15013
0.667335
-0.469716
-1.19606
-1.54213
-1.60494
-1.50295
-1.32124
-1.11355
-0.910175
-0.726176
-0.567707
-0.435259
-0.326753
-0.239491
-0.170515
-0.116871
-0.0757841
-0.0445955
-0.0211406
-0.00364648
0.0092228
0.0184249
0.0246437
0.0266798
0.0274298
0.00317169
6.52437
5.53934
4.12555
2.71579
1.46571
0.433108
-0.320644
-0.794477
-1.03602
-1.11585
-1.09397
-1.01424
-0.906388
-0.789475
-0.674695
-0.567941
-0.471995
-0.387937
-0.315744
-0.254693
-0.203668
-0.161272
-0.126156
-0.0969984
-0.0726544
-0.0521346
-0.0340873
-0.0202998
-0.00213238
-0.020383
6.72862
5.89152
4.7847
3.64532
2.52592
1.49837
0.645723
0.0031976
-0.436017
-0.707378
-0.851263
-0.90398
-0.895453
-0.848525
-0.779701
-0.700404
-0.618299
-0.53838
-0.463687
-0.39582
-0.33538
-0.282231
-0.235846
-0.195387
-0.15987
-0.128304
-0.0984533
-0.072422
-0.0356936
-0.0397973
6.74859
6.2719
5.52026
4.60129
3.58196
2.55108
1.60264
0.801607
0.17565
-0.279835
-0.586269
-0.771469
-0.863911
-0.889281
-0.868851
-0.819241
-0.752901
-0.678798
-0.603112
-0.52984
-0.461331
-0.398732
-0.342315
-0.291812
-0.246351
-0.205039
-0.164841
-0.127174
-0.0735642
-0.0582001
6.68769
6.47979
5.9884
5.24618
4.33649
3.34654
2.36697
1.4777
0.72929
0.140247
-0.293845
-0.590669
-0.774178
-0.869614
-0.900231
-0.885689
-0.841699
-0.78027
-0.710189
-0.637558
-0.566366
-0.499009
-0.436631
-0.379616
-0.327423
-0.27936
-0.232162
-0.186494
-0.120388
-0.0853456
39.3466
38.4403
38.3627
36.4942
22.3642
0.264496
-25.2418
-26.1407
-18.7433
-11.9457
-7.45894
-4.51192
-2.55791
-1.2686
-0.422398
0.126947
0.476788
0.676302
0.795764
0.804625
0.7701
0.720918
0.65825
0.591188
0.524774
0.461142
0.398406
0.348671
0.256879
0.408678
36.6056
35.6076
34.826
31.2992
18.8068
0.757352
-22.3553
-23.3658
-17.0962
-11.0949
-6.96793
-4.22017
-2.3872
-1.17278
-0.373646
0.146171
0.476852
0.665862
0.783057
0.786937
0.753148
0.705045
0.644115
0.578743
0.513897
0.45155
0.390573
0.339223
0.26214
0.371826
32.2045
31.0693
29.8566
26.8502
14.0511
-4.00416
-17.5159
-19.3527
-14.5667
-9.70356
-6.18873
-3.77306
-2.13624
-1.04162
-0.316675
0.157129
0.459078
0.631653
0.740413
0.744005
0.715324
0.670684
0.613671
0.552281
0.491002
0.431711
0.373573
0.323231
0.251253
0.34491
26.9038
25.7644
23.9716
20.2775
10.6519
-3.27332
-12.9667
-14.684
-11.6532
-8.09488
-5.28665
-3.26499
-1.86227
-0.909236
-0.270808
0.150204
0.420326
0.576428
0.677099
0.680766
0.659696
0.620466
0.56916
0.513576
0.457518
0.402744
0.348604
0.300576
0.232839
0.310767
21.5969
20.6217
18.7957
14.9148
7.37687
-2.80639
-9.14233
-10.6096
-8.87901
-6.44502
-4.33159
-2.72302
-1.56924
-0.768618
-0.224343
0.138498
0.373092
0.511762
0.601344
0.602662
0.588508
0.556175
0.512284
0.46407
0.414691
0.365767
0.31677
0.272153
0.209429
0.269478
16.8322
16.0479
14.426
10.7456
4.82235
-2.2317
-6.51167
-7.62471
-6.58899
-4.94524
-3.41661
-2.19372
-1.28376
-0.635444
-0.186743
0.116357
0.313955
0.431631
0.496718
0.511667
0.504274
0.479827
0.445057
0.405522
0.364028
0.322108
0.279315
0.239139
0.182437
0.223777
12.9111
12.2771
10.8827
7.59929
3.05544
-1.73879
-4.73924
-5.60638
-5.00812
-3.9125
-2.80979
-1.87406
-1.14649
-0.609423
-0.227853
0.0363333
0.212944
0.322734
0.383947
0.408735
0.409307
0.394412
0.36981
0.33987
0.307197
0.273223
0.237587
0.202843
0.1533
0.176306
9.94228
9.3947
8.15465
5.31047
1.82819
-1.492
-3.55976
-4.20431
-3.85749
-3.12074
-2.32606
-1.61693
-1.04283
-0.604289
-0.283068
-0.0542749
0.103536
0.206511
0.268497
0.299206
0.308135
0.303096
0.288865
0.269001
0.245789
0.220497
0.192854
0.164511
0.123366
0.129611
7.89563
7.36348
6.17106
3.7262
1.04569
-1.2959
-2.73004
-3.20695
-3.00884
-2.51264
-1.94426
-1.41442
-0.968505
-0.61615
-0.348758
-0.152014
-0.0112395
0.0853788
0.148098
0.184735
0.202551
0.207585
0.203872
0.194378
0.181059
0.165019
0.146119
0.125146
0.093751
0.0859868
6.66078
6.08168
4.8495
2.74575
0.661071
-1.0339
-2.06537
-2.44341
-2.35502
-2.03758
-1.64467
-1.25955
-0.921689
-0.643677
-0.424054
-0.255981
-0.130312
-0.0390728
0.0248894
0.0675237
0.0940997
0.10915
0.115957
0.116956
0.113796
0.107453
0.0979775
0.085353
0.0652017
0.0472845
6.08188
5.41546
4.11403
2.3118
0.664317
-0.623827
-1.43179
-1.78505
-1.80481
-1.64028
-1.39622
-1.13572
-0.892592
-0.681044
-0.505325
-0.363783
-0.252019
-0.165569
-0.100076
-0.0515781
-0.016489
0.0084161
0.0256424
0.0371329
0.0442762
0.0479615
0.048528
0.0452244
0.0379615
0.0147649
5.97692
5.22021
3.90151
2.38369
1.04513
-0.0175369
-0.742648
-1.14281
-1.28924
-1.27421
-1.16994
-1.0255
-0.870841
-0.722557
-0.589103
-0.473293
-0.375075
-0.293342
-0.226395
-0.172279
-0.128973
-0.0944577
-0.0670042
-0.0451274
-0.0276658
-0.0137611
-0.00264612
0.0042754
0.0116396
-0.0110397
6.14546
5.35563
4.14685
2.89574
1.75464
0.781482
0.0361561
-0.469307
-0.765913
-0.907521
-0.94415
-0.91497
-0.848284
-0.763307
-0.672339
-0.582668
-0.498413
-0.421806
-0.353798
-0.294465
-0.243342
-0.199567
-0.162189
-0.130167
-0.102541
-0.0784453
-0.0564991
-0.0386477
-0.0150465
-0.030573
6.3596
5.67891
4.71994
3.69853
2.67251
1.70957
0.887102
0.24384
-0.218131
-0.523724
-0.705366
-0.794505
-0.818414
-0.798803
-0.752038
-0.689933
-0.620755
-0.550156
-0.481815
-0.417913
-0.359565
-0.307074
-0.260266
-0.218576
-0.181211
-0.14733
-0.114746
-0.0856785
-0.0450769
-0.0462026
6.3944
6.00544
5.34547
4.51395
3.57743
2.61776
1.7207
0.948402
0.330832
-0.131174
-0.453439
-0.659223
-0.773636
-0.820128
-0.818697
-0.785362
-0.732414
-0.668927
-0.601334
-0.533957
-0.46949
-0.409413
-0.354295
-0.304115
-0.2582
-0.215816
-0.174067
-0.134473
-0.0786865
-0.0608677
6.35229
6.17931
5.73988
5.06044
4.21987
3.29893
2.38002
1.53686
0.817996
0.243458
-0.187983
-0.490506
-0.684852
-0.793641
-0.838224
-0.83702
-0.80501
-0.753842
-0.692195
-0.626232
-0.560095
-0.496379
-0.436442
-0.380856
-0.329259
-0.281101
-0.233301
-0.186627
-0.119895
-0.0835736
27.8828
26.7184
24.9151
21.1828
12.6355
-3.93621
-12.9278
-15.7175
-11.8417
-8.12121
-5.35605
-3.32532
-1.89752
-0.922649
-0.267233
0.164799
0.44153
0.60323
0.677274
0.708163
0.683263
0.641013
0.588074
0.530401
0.472173
0.415498
0.358669
0.311276
0.226991
0.336682
26.1119
24.9396
22.9512
18.7872
10.6703
-3.82501
-11.7326
-14.2163
-10.9825
-7.61019
-5.03159
-3.1272
-1.78044
-0.8572
-0.235529
0.174593
0.43683
0.589167
0.658144
0.687478
0.664852
0.624038
0.572891
0.517072
0.460582
0.405371
0.350388
0.302057
0.230113
0.306126
23.257
22.1336
20.2019
15.9232
8.14403
-2.69121
-10.2475
-11.9487
-9.56413
-6.7964
-4.54769
-2.84788
-1.62939
-0.785947
-0.214294
0.164851
0.408194
0.549952
0.614651
0.643333
0.624956
0.588231
0.541259
0.489532
0.436773
0.384827
0.332908
0.286126
0.21925
0.282635
19.7503
18.7368
16.8464
12.8111
6.00043
-2.3462
-8.20746
-9.54658
-7.95862
-5.83146
-3.97537
-2.52536
-1.46389
-0.71789
-0.206409
0.136284
0.358282
0.489205
0.550651
0.579518
0.567043
0.536324
0.495386
0.449556
0.402191
0.355012
0.307409
0.263551
0.201471
0.252625
16.1708
15.3448
13.6696
9.97416
4.37792
-2.0418
-6.26305
-7.38086
-6.40012
-4.84788
-3.38755
-2.2001
-1.30573
-0.663254
-0.215597
0.088861
0.288964
0.409724
0.469857
0.49995
0.494113
0.470803
0.437438
0.398989
0.358421
0.31731
0.275182
0.235376
0.179034
0.216374
12.9099
12.2752
10.8803
7.59177
3.05778
-1.73905
-4.73878
-5.60726
-5.00832
-3.91209
-2.80912
-1.87331
-1.14583
-0.608919
-0.227518
0.0365313
0.213052
0.322797
0.38399
0.408789
0.409376
0.394485
0.369884
0.339942
0.307265
0.273285
0.23764
0.202884
0.153324
0.17631
10.1992
9.71425
8.56305
5.72171
2.12851
-1.38606
-3.59232
-4.30015
-3.95681
-3.19782
-2.37786
-1.6479
-1.05858
-0.609566
-0.281765
-0.0490061
0.111077
0.21502
0.27728
0.307344
0.316066
0.310408
0.295357
0.274661
0.250642
0.224598
0.196276
0.167462
0.125741
0.134801
8.13908
7.74276
6.74262
4.316
1.48161
-1.10513
-2.7325
-3.30609
-3.12773
-2.61344
-2.01592
-1.45839
-0.990215
-0.621819
-0.343928
-0.140662
0.0039089
0.102282
0.165402
0.201377
0.218131
0.221726
0.216396
0.205266
0.190355
0.172808
0.152487
0.130423
0.0976006
0.0941389
6.7302
6.35655
5.40232
3.32455
1.08243
-0.843663
-2.05831
-2.531
-2.46545
-2.13301
-1.71174
-1.29792
-0.935967
-0.640488
-0.409165
-0.233902
-0.104353
-0.0116534
0.0521126
0.0933673
0.117933
0.13063
0.134937
0.133433
0.127843
0.119163
0.107393
0.0928322
0.0699955
0.0563934
5.90873
5.49894
4.50775
2.71604
0.928051
-0.537916
-1.47692
-1.8911
-1.91665
-1.72928
-1.45302
-1.16136
-0.892972
-0.663257
-0.475392
-0.326831
-0.211834
-0.124861
-0.0606808
-0.014712
0.0171896
0.0386108
0.0522823
0.0602803
0.0640481
0.0644587
0.0616954
0.0553613
0.0436661
0.0232437
5.5692
5.08277
4.02229
2.47732
1.03255
-0.129371
-0.908038
-1.31254
-1.42952
-1.37081
-1.22213
-1.03943
-0.855642
-0.686892
-0.54051
-0.417895
-0.317305
-0.236292
-0.172094
-0.121972
-0.0832894
-0.053609
-0.030941
-0.0136798
-0.000637223
0.00897043
0.0155914
0.0181787
0.0188774
-0.00415971
5.57785
5.00617
3.91496
2.60109
1.40608
0.421491
-0.294329
-0.73947
-0.961691
-1.02961
-1.00205
-0.922203
-0.818663
-0.708877
-0.603112
-0.506289
-0.420315
-0.345672
-0.281955
-0.228245
-0.183341
-0.145894
-0.114646
-0.0884374
-0.0663089
-0.0475244
-0.0312464
-0.0191111
-0.00470704
-0.0253272
5.77911
5.16564
4.15018
3.05496
2.02495
1.11664
0.387718
-0.141197
-0.486263
-0.685923
-0.779912
-0.801946
-0.778085
-0.72717
-0.662197
-0.591628
-0.520818
-0.453118
-0.390454
-0.333732
-0.283168
-0.238467
-0.199102
-0.164349
-0.133452
-0.105694
-0.0796831
-0.0575458
-0.0282576
-0.0406685
5.99041
5.45278
4.63571
3.73197
2.80195
1.90837
1.12247
0.485033
0.00577495
-0.330505
-0.54827
-0.673678