/*--------------------------------*- C++ -*----------------------------------*\
  =========                 |
  \\      /  F ield         | OpenFOAM: The Open Source CFD Toolbox
   \\    /   O peration     | Website:  https://openfoam.org
    \\  /    A nd           | Version:  10
     \\/     M anipulation  |
\*---------------------------------------------------------------------------*/
FoamFile
{
    format      ascii;
    class       surfaceScalarField;
    location    "400";
    object      phi;
}
// * * * * * * * * * * * * * * * * * * * * * * * * * * * * * * * * * * * * * //

dimensions      [0 3 -1 0 0 0 0];

internalField   nonuniform List<scalar> 
81522
(
525.511
8.66147
8.65395
113.535
32.0206
31.9821
115.399
115.439
117.135
94.0554
9.70298
9.77645
-14.8845
3.26392
3.27184
2.04065
2.10885
2.10941
2.08986
1.14319
-0.670152
-0.768439
0.295394
-6.42268
-1.00591
-1.05674
8.48533
-13.9213
15.4544
-0.758288
-0.774764
-19.2913
20.3476
-0.525214
-0.531117
-22.981
23.7084
-0.362438
-0.365003
-25.5384
26.05
-0.2551
-0.256547
-27.3539
27.7234
-0.1843
-0.185254
-28.6763
28.9493
-0.136213
-0.136756
-29.6577
29.8612
-0.101722
-0.101817
-30.3888
122.742
-0.580604
-0.57991
-30.3953
-30.3952
-30.402
502.237
-3.31951
-3.31886
-123.784
-123.9
-123.9
-124.015
507.638
-2.69994
-2.70058
512.066
-2.2133
-2.21463
515.741
-1.83644
-1.83806
518.823
-1.5404
-1.54209
521.434
-1.30455
-1.30619
523.663
-1.11383
-1.11536
525.579
-0.957436
-0.958837
527.224
-0.821641
-0.822892
528.659
-0.717007
-0.718108
-0.565446
-0.566424
530.005
14.3332
7.51238
118.767
50.4803
26.8575
122.375
120.192
123.353
-17.8716
104.803
23.5821
8.25348
-11.2736
-19.7675
13.0645
2.77028
3.87598
3.73611
3.6777
3.91658
-2.75153
3.57784
-4.94136
-0.910454
5.02549
-11.2233
3.8448
-0.952041
-4.61196
12.9425
2.75772
-17.1966
18.3653
-3.25112
-0.675328
1.9117
-21.2977
22.1153
-2.26245
-0.466849
1.33706
-24.1916
24.7773
-1.59573
-0.327064
0.954712
-26.2799
26.7083
-1.14884
-0.234254
0.698061
-27.8181
28.1376
-0.845775
-0.171791
0.520849
-28.9721
29.2142
-0.634511
-0.128415
0.392501
-29.8495
30.0344
-0.480577
-0.0967715
-30.5287
1.14006
123.303
-1.65813
-0.555329
-30.5793
-30.5355
-30.586
504.234
-6.21963
-3.16323
-124.307
-124.67
-124.418
-124.775
509.205
-5.08446
-2.58628
513.318
-4.19621
-2.1301
516.756
-3.49971
-1.77455
519.659
-2.94886
-1.49362
522.13
-2.50742
-1.26869
524.251
-2.14847
-1.08605
526.081
-1.85161
-0.935693
527.661
-1.59682
-0.804993
529.03
-1.38065
-0.704904
-1.14021
-0.552941
535.717
16.4879
5.97418
126.161
54.3919
19.9358
129.16
126.884
129.665
-26.2506
119.696
26.8794
5.83618
-14.8571
-27.2567
25.6801
14.6793
1.75444
-0.817589
0.536256
0.414547
-0.133252
-16.7438
8.27806
-8.46818
-0.972547
17.9065
5.78713
-20.3985
-0.672278
21.081
-5.79737
4.04918
-22.8855
23.4231
-4.1085
-0.478375
2.90453
-24.8738
25.3081
-2.99251
-0.346331
2.12254
-26.4802
26.8307
-2.21829
-0.254732
1.57783
-27.7749
28.0569
-1.66937
-0.190414
1.19264
-28.816
29.0426
-1.27461
-0.144606
0.913849
-29.6525
29.8345
-0.984658
-0.111168
0.704891
-30.3239
30.4698
-0.764982
-0.0857973
-30.8757
2.10133
124.551
-2.47802
-0.501582
-30.9544
-30.8818
-30.9603
507.945
-8.3757
-2.87747
-125.419
-125.942
-125.517
-126.032
512.16
-6.92475
-2.37491
515.711
-5.77364
-1.9728
518.723
-4.85638
-1.65537
521.297
-4.12125
-1.40185
523.513
-3.52593
-1.19711
525.432
-3.03755
-1.02965
527.101
-2.63018
-0.890929
528.554
-2.27974
-0.769896
529.825
-1.975
-0.676838
-1.65606
-0.533531
540.794
16.2573
4.56823
530.573
50.3572
14.2558
129.483
97.8781
28.7375
-26.361
-35.7383
-25.5444
-34.4019
132.954
130.195
133.372
-53.1733
130.865
44.514
7.2774
-22.976
-33.8874
35.8774
19.2325
1.75347
-3.86929
0.741946
3.63969
-0.518075
-2.49141
2.8686
-2.35452
1.97665
11.388
-28.2353
27.6599
-9.98546
-0.827189
7.25082
-26.9452
-0.548213
26.8767
-6.63407
5.17206
-26.9505
27.0384
-4.86319
-0.39678
3.88807
-27.4109
27.5586
-3.73363
-0.302119
2.98392
-28.0431
28.2108
-2.91743
-0.234201
2.31498
-28.7177
28.8837
-2.29801
-0.183022
1.81048
-29.3674
29.5212
-1.82036
-0.144009
1.42691
-29.9602
30.0974
-1.45006
-0.114091
1.1313
-30.4837
30.6031
-1.15984
-0.0908138
0.898638
-30.9359
31.0379
-0.928462
-0.0722125
-31.3384
2.76103
126.194
-2.97939
-0.43328
-31.4278
-31.3436
-31.4329
512.737
-9.70755
-2.52037
-126.886
-127.477
-126.969
-127.552
516.056
-8.13746
-2.10552
518.92
-6.8693
-1.76882
521.402
-5.83899
-1.49858
523.559
-4.99933
-1.27957
525.444
-4.3102
-1.10065
527.098
-3.73862
-0.952898
528.555
-3.25724
-0.829524
529.837
-2.84075
-0.721252
530.974
-2.4739
-0.637571
-2.09556
-0.50748
544.462
14.6299
3.36039
541.746
43.221
9.85178
546.246
75.739
17.6389
142.356
109.302
6.918
-37.0431
-43.4965
-35.6153
-41.7397
141.821
142.315
141.795
7.99167
5.66549
5.97633
-49.1495
148.502
38.0647
4.93884
-11.0447
-39.3761
40.5575
0.621903
9.24116
-0.816666
-42.4449
41.7134
0.0629882
1.48513
6.09068
-37.5423
140.746
-13.7884
-2.16008
6.37763
5.96339
6.28217
-37.5723
-37.2036
-37.1928
6.04385
-133.901
129.329
-16.6611
-2.27011
5.96893
5.77748
5.71266
4.8212
-126.261
124.378
-14.9336
-1.93165
4.59343
4.77696
4.55681
3.87256
-123.167
122.482
-12.8317
-1.60503
3.71456
3.8452
3.6893
3.16861
-122.117
122.022
-10.96
-1.33942
3.04699
3.14941
3.02961
2.60681
-122.105
122.33
-9.31132
-1.11939
2.50886
2.59299
2.49618
2.14438
-122.663
123.067
-7.86811
-0.933663
2.06422
2.1343
2.05487
1.7623
-123.531
124.02
-6.61646
-0.776972
1.69707
1.75486
1.6901
1.44789
-124.537
125.052
-5.54356
-0.645461
1.39478
1.44233
1.38953
1.18859
-125.574
126.078
-4.62719
-0.534876
1.14477
1.18444
1.14086
0.97243
-126.578
127.051
-3.84358
-0.441218
0.936405
0.969482
0.933672
3.10962
-127.52
127.963
-3.18968
-0.36313
518.003
-10.2945
-2.14342
-128.487
-129.083
-128.555
-129.147
520.441
-8.75965
-1.81495
522.606
-7.49013
-1.54448
524.531
-6.44061
-1.32325
526.242
-5.56926
-1.14082
527.765
-4.84325
-0.98979
529.123
-4.23375
-0.863684
530.339
-3.71526
-0.757467
531.425
-3.26356
-0.663636
532.404
-2.86211
-0.590799
-2.44677
-0.47613
546.669
12.3648
2.40944
547.388
35.6419
6.85991
552.707
58.9785
11.4417
567.674
78.5972
15.7371
147.609
81.0511
15.9612
-30.1412
-28.7006
-29.2871
-27.894
145.903
147.401
145.771
-23.5068
149.916
19.3084
1.89121
-6.59412
-150.4
148.879
7.48387
0.631106
557.33
-6.89427
-2.91465
7.27624
9.60873
6.74512
9.09192
-145.76
-144.495
-145.607
-144.382
538.985
-21.5407
-5.37048
11.5553
11.51
11.0723
11.1193
527.209
-27.2715
-5.9415
11.6692
11.1418
11.3204
10.8564
520.245
-28.4596
-5.78996
10.7063
10.1342
10.4538
9.91957
516.455
-27.5117
-5.36562
9.52349
8.98869
9.33349
8.82207
514.777
-25.5945
-4.8463
8.34245
7.85431
8.19477
7.7266
514.502
-23.2439
-4.30786
7.22745
6.79188
7.11388
6.69307
515.155
-20.7728
-3.78468
6.20781
5.82597
6.12058
5.74969
516.391
-18.3372
-3.29498
5.29647
4.96466
5.22957
4.906
517.965
-16.0232
-2.8461
4.49129
4.20378
4.44032
4.15924
519.716
-13.8815
-2.4417
3.78368
3.53763
3.74578
3.50515
521.54
-11.9548
-2.08486
3.17446
2.96442
3.14574
2.93127
523.304
-10.2767
-1.78165
524.954
-8.87826
-1.53076
526.479
-7.69491
-1.32092
527.88
-6.69526
-1.14533
529.157
-5.84918
-0.99786
530.321
-5.13325
-0.874004
531.382
-4.52475
-0.769391
532.349
-4.00205
-0.680524
533.231
-3.54371
-0.60154
534.042
-3.13361
-0.540055
-2.70417
-0.441766
547.821
9.97866
1.69294
550.109
28.6001
4.75418
555.517
45.9491
7.62085
565.209
59.0289
9.87615
575.779
60.5619
9.91916
579.418
47.0379
7.26885
-16.322
-12.8675
-16.0491
-12.7067
573.498
25.5752
3.49028
-7.57996
-3.96319
-7.55491
-4.04789
561.414
5.22732
-0.0371676
549.825
-7.92202
-2.02993
540.749
-15.2172
-2.97792
534.32
-18.7002
-3.3307
530.044
-19.8773
-3.35841
527.387
-19.7218
-3.21638
525.92
-18.7865
-2.99028
525.315
-17.4425
-2.7249
525.322
-15.897
-2.44714
525.754
-14.2835
-2.17247
526.475
-12.6911
-1.91071
527.371
-11.1816
-1.6691
528.359
-9.80991
-1.45496
529.359
-8.60704
-1.27064
530.336
-7.56027
-1.11193
531.272
-6.65533
-0.976059
532.157
-5.87436
-0.859812
532.988
-5.20332
-0.760714
533.765
-4.6261
-0.676047
534.493
-4.12595
-0.603568
535.173
-3.68519
-0.538865
535.817
-3.28936
-0.488461
-2.86717
-0.406566
548.299
7.75478
1.17194
551.114
22.5018
3.28323
556.019
35.8875
5.15621
563.027
45.5243
6.49665
569.847
47.1626
6.57932
572.608
39.0765
5.20106
569.811
25.2765
3.09511
563.088
10.9563
0.993804
555.544
0.0833194
-0.461339
548.842
-7.16077
-1.35368
543.485
-11.5056
-1.83779
539.469
-13.8077
-2.05363
536.577
-14.7274
-2.10296
534.61
-14.7673
-2.05236
533.359
-14.2489
-1.94246
532.657
-13.3956
-1.79985
532.372
-12.3565
-1.64159
532.396
-11.236
-1.47918
532.644
-10.1082
-1.32081
533.041
-9.03297
-1.17409
533.523
-8.04665
-1.04211
534.048
-7.16109
-0.924992
534.592
-6.37639
-0.822287
535.136
-5.68553
-0.732652
535.67
-5.08277
-0.655064
536.191
-4.55844
-0.588034
536.696
-4.10092
-0.530287
537.186
-3.69685
-0.478661
537.67
-3.3345
-0.438531
-2.93845
-0.372336
548.369
5.84279
0.804669
551.196
17.3986
2.27601
555.481
28.0392
3.5634
560.891
35.663
4.45122
565.892
37.5787
4.58262
568.318
32.8019
3.84872
567.306
23.6579
2.62991
563.549
13.3955
1.3183
558.704
4.65082
0.277321
553.882
-1.87917
-0.459564
549.64
-6.32889
-0.934739
546.147
-9.10394
-1.21067
543.398
-10.6312
-1.34789
541.307
-11.2846
-1.3911
539.768
-11.3383
-1.37229
538.683
-10.9964
-1.31401
537.964
-10.405
-1.2319
537.534
-9.66957
-1.13701
537.331
-8.86774
-1.03745
537.298
-8.05956
-0.939735
537.383
-7.28407
-0.847739
537.55
-6.56438
-0.763386
537.771
-5.91006
-0.687434
538.027
-5.32214
-0.61972
538.306
-4.80144
-0.560178
538.6
-4.34386
-0.50819
538.905
-3.94279
-0.463189
539.22
-3.58936
-0.423092
539.554
-3.27586
-0.392106
-2.92234
-0.340458
548.243
4.24589
0.552286
550.82
13.2254
1.59605
554.519
21.8159
2.52372
558.93
28.0847
3.16795
562.996
30.1806
3.33226
565.376
27.4727
2.94913
565.46
21.3541
2.2192
563.555
13.9281
1.37241
560.539
7.04173
0.625512
557.176
1.44252
0.0409107
553.934
-2.70764
-0.379611
551.041
-5.55031
-0.659745
548.585
-7.34489
-0.830949
546.565
-8.34275
-0.921898
544.945
-8.76276
-0.955677
543.677
-8.77777
-0.949897
542.708
-8.51877
-0.917623
541.992
-8.08445
-0.868599
541.483
-7.54906
-0.810168
541.142
-6.97005
-0.748111
540.93
-6.38598
-0.686281
540.817
-5.82431
-0.627251
540.779
-5.29977
-0.572425
540.798
-4.81862
-0.522357
540.861
-4.38622
-0.477578
540.958
-4.00292
-0.438074
541.085
-3.6666
-0.403775
541.242
-3.37291
-0.373526
541.437
-3.1199
-0.350394
-2.82331
-0.311895
548.002
2.96435
0.382358
550.233
9.85208
1.14207
553.434
16.7737
1.84195
557.21
21.9626
2.34553
560.788
24.077
2.52565
563.246
22.6765
2.33822
564.092
18.6158
1.89229
563.418
13.273
1.32924
561.716
7.95612
0.787774
559.473
3.35656
0.328336
557.075
-0.279008
-0.030688
554.762
-2.94474
-0.292563
552.654
-4.76419
-0.471812
550.8
-5.90422
-0.585448
549.214
-6.52666
-0.649289
547.881
-6.76929
-0.67634
546.782
-6.7426
-0.676993
545.89
-6.53304
-0.659419
545.179
-6.20737
-0.630012
544.62
-5.8177
-0.593887
544.189
-5.39988
-0.554624
543.861
-4.98164
-0.514959
543.618
-4.57964
-0.47661
543.443
-4.20292
-0.440538
543.324
-3.85953
-0.40763
543.252
-3.55302
-0.378281
543.223
-3.28516
-0.352748
543.237
-3.05568
-0.33069
543.302
-2.871
-0.314072
-2.64445
-0.287245
547.706
1.96099
0.26859
549.597
7.11876
0.842303
552.399
12.5739
1.39773
555.774
16.7733
1.81506
559.111
18.7386
2.00143
561.703
18.1582
1.92552
563.122
15.5467
1.65014
563.323
11.8057
1.26626
562.574
7.83922
0.866639
561.212
4.21517
0.502627
559.528
1.20655
0.198645
557.736
-1.11351
-0.0393269
555.976
-2.78857
-0.215619
554.329
-3.91736
-0.339383
552.834
-4.61155
-0.420712
551.509
-4.97472
-0.468871
550.353
-5.09465
-0.491879
549.359
-5.04256
-0.496412
548.514
-4.87485
-0.487926
547.803
-4.63617
-0.470908
547.21
-4.35793
-0.448644
546.718
-4.06543
-0.423833
546.312
-3.77494
-0.398321
545.978
-3.49639
-0.373299
545.708
-3.23885
-0.349861
545.491
-3.00779
-0.328683
545.324
-2.80814
-0.3102
545.206
-2.6429
-0.294811
545.149
-2.52989
-0.28338
-2.38559
-0.266797
547.415
1.19268
0.190724
548.989
4.89749
0.646878
551.489
8.961
1.11288
554.624
12.1612
1.47734
557.862
13.8337
1.66621
560.614
13.7493
1.6569
562.483
12.19
1.48789
563.354
9.71485
1.21989
563.349
6.92599
0.917611
562.689
4.25156
0.623981
561.598
1.93366
0.363616
560.267
0.0704856
0.147369
558.837
-1.335
-0.0232554
557.404
-2.33256
-0.151941
556.029
-2.99246
-0.244562
554.749
-3.38663
-0.307467
553.58
-3.57966
-0.346704
552.531
-3.62593
-0.367662
551.601
-3.5696
-0.374971
550.784
-3.44618
-0.372578
550.071
-3.28117
-0.363513
549.451
-3.0956
-0.350372
548.915
-2.90361
-0.335052
548.452
-2.71449
-0.318881
548.053
-2.53691
-0.303072
547.711
-2.37699
-0.288505
547.42
-2.24186
-0.275673
547.179
-2.13623
-0.265655
546.999
-2.09166
-0.258146
-2.04016
-0.250559
547.168
0.613019
0.132188
548.495
3.04844
0.522258
550.793
5.72328
0.939592
553.786
7.89413
1.27431
556.999
9.15254
1.46721
559.919
9.32813
1.50207
562.166
8.53877
1.4032
563.577
7.09207
1.21243
564.177
5.34892
0.97705
564.101
3.59386
0.733026
563.521
2.00936
0.504091
562.602
0.686834
0.303516
561.479
-0.349319
0.136609
560.259
-1.11638
0.00346714
559.017
-1.6518
-0.0986845
557.804
-1.99909
-0.173921
556.651
-2.20001
-0.226704
555.577
-2.29124
-0.261363
554.593
-2.30336
-0.28185
553.7
-2.26138
-0.291683
552.896
-2.18364
-0.293689
552.177
-2.0855
-0.290376
551.534
-1.9776
-0.283666
550.962
-1.86735
-0.274994
550.453
-1.76169
-0.265643
549.998
-1.66609
-0.256672
549.594
-1.58859
-0.248522
549.233
-1.53305
-0.242913
548.922
-1.54241
-0.238149
-1.58666
-0.238453
547.014
0.206299
0.0766855
548.162
1.44582
0.455107
550.299
2.73369
0.852457
553.174
3.84341
1.17545
556.385
4.56095
1.38024
559.479
4.78126
1.45258
562.086
4.5263
1.40585
563.991
3.9167
1.26978
565.147
3.11287
1.08045
565.616
2.25497
0.869199
565.522
1.44383
0.659349
565.004
0.738718
0.466024
564.193
0.164088
0.297394
563.199
-0.279407
0.15646
562.109
-0.604347
0.042836
560.984
-0.829265
-0.0457625
559.871
-0.97396
-0.112544
558.797
-1.05683
-0.161007
557.782
-1.09376
-0.194579
556.835
-1.09803
-0.216458
555.961
-1.07966
-0.229342
555.158
-1.04708
-0.235681
554.424
-1.0063
-0.237429
553.755
-0.961728
-0.236136
553.144
-0.917413
-0.233126
552.584
-0.876715
-0.229626
552.067
-0.84598
-0.226005
551.586
-0.827001
-0.224429
551.123
-0.85766
-0.221657
-0.968706
-0.228806
546.951
0.0347479
547.971
0.425214
549.879
0.825636
552.56
1.16251
555.718
1.40227
558.972
1.52733
561.958
1.54021
564.415
1.45941
566.215
1.31234
567.343
1.12685
567.859
0.926668
567.868
0.729599
567.484
0.54741
566.818
0.386578
565.964
0.249685
564.997
0.136696
563.977
0.0459201
562.945
-0.0252062
561.931
-0.079587
560.953
-0.120169
560.023
-0.149638
559.147
-0.170482
558.325
-0.184803
557.558
-0.194347
556.841
-0.200604
556.17
-0.205009
555.532
-0.208001
554.917
-0.212112
554.272
-0.212765
-0.224173
530.001
7.55808
14.2991
118.729
27.0522
50.3957
120.196
122.309
123.301
-17.886
104.735
8.32267
23.5574
-11.2692
-19.7583
2.80531
13.149
3.90163
3.64922
3.70286
3.81951
-2.84116
4.00177
-0.848398
-5.46422
5.152
-11.3185
4.00276
-0.924841
-4.77679
13.0174
2.80806
-17.2294
18.3901
-0.664405
-3.30438
1.93065
-21.3084
22.1235
-0.462453
-2.28329
1.34579
-24.1953
24.7802
-0.325011
-1.60567
0.959791
-26.2812
26.7093
-0.233064
-1.15476
0.701487
-27.8183
28.1376
-0.170985
-0.84983
0.522898
-28.9718
29.2138
-0.127907
-0.636981
0.393035
-29.8489
30.0338
-0.0965853
-0.481285
-30.5282
1.1392
123.301
-0.555387
-1.65766
-30.5351
-30.5786
-30.5854
504.23
-3.16246
-6.22255
-124.305
-124.417
-124.667
-124.773
509.203
-2.58499
-5.08807
513.317
-2.12844
-4.20014
516.756
-1.77273
-3.50366
519.658
-1.4918
-2.95266
522.13
-1.26694
-2.51098
524.251
-1.08441
-2.15173
526.081
-0.934197
-1.85457
527.661
-0.803644
-1.59945
529.029
-0.703703
-1.38297
-0.551861
-1.14226
533.361
12.725
12.6709
122.575
43.6941
43.5057
125.2
125.147
127.149
-15.1617
-15.2853
112.618
20.2826
20.1222
-9.21153
-9.62655
-23.4937
20.3559
11.151
10.8251
-8.13228
4.07459
4.01337
-5.19717
-5.20042
10.4419
-15.4359
3.50139
3.43001
-4.06511
-4.13318
16.7027
2.4437
2.41096
-19.8189
20.6864
-2.84401
-2.8782
1.70631
1.69201
-22.91
23.5452
-2.00892
-2.02467
1.21266
1.20565
-25.1954
25.6715
-1.44325
-1.45125
0.88014
0.875955
-26.917
27.2787
-1.05647
-1.06136
0.652494
0.649604
-28.2303
28.5083
-0.788335
-0.791758
0.492047
0.49016
-29.2432
29.4589
-0.597805
-0.600075
0.373963
0.373163
-30.0308
30.1992
-0.457218
-0.458227
-30.6625
1.08989
1.08964
123.835
-1.58551
-1.58643
-30.7108
-30.7107
-30.7577
506.11
-5.93299
-5.93762
-124.8
-125.146
-125.145
-125.472
510.691
-4.87349
-4.87783
514.516
-4.03935
-4.04365
517.736
-3.38096
-3.38512
520.469
-2.85747
-2.86143
522.81
-2.4362
-2.43989
524.828
-2.0924
-2.0958
526.575
-1.80713
-1.81022
528.093
-1.56201
-1.5648
529.392
-1.35237
-1.35485
-1.12178
-1.12402
537.796
14.9566
10.3194
128.105
48.231
33.504
130.483
129.559
131.544
-22.8635
-10.8653
123.361
23.7331
14.7401
-6.26932
-13.043
51.75
32.5666
27.6684
29.1862
28.3531
29.8633
-118.618
-15.4885
-12.2246
-14.4053
-7.18446
-5.55163
-6.60276
-3.73554
-7.55374
-6.7646
7.28399
7.05759
3.7156
1.11079
1.78907
-2.32528
3.08931
-2.60509
-1.05886
-20.4738
7.35373
3.47169
-7.36989
-4.06189
21.0802
2.42778
5.02702
-22.5934
-2.85868
23.0488
-5.05154
1.74874
3.57747
-24.3286
24.7281
-3.65107
-2.07468
1.28273
2.6131
-25.8411
26.1849
-2.70592
-1.53376
0.955053
1.94103
-27.1357
27.4264
-2.03671
-1.15005
0.721344
1.46296
-28.2236
28.4656
-1.55244
-0.873845
0.552447
1.1182
-29.1258
29.3253
-1.19765
-0.672538
0.427689
0.86461
-29.868
30.0316
-0.933071
-0.522779
0.332397
0.672544
-30.4755
30.6091
-0.73067
-0.407916
-30.9916
0.984656
2.01127
125.015
-2.37577
-1.43558
-31.067
-31.0333
-31.1067
509.61
-8.00937
-5.41667
-125.853
-126.353
-126.156
-126.631
513.503
-6.65014
-4.4903
516.81
-5.56586
-3.75187
519.633
-4.69678
-3.16227
522.059
-3.99686
-2.68856
524.158
-3.4279
-2.30411
525.984
-2.95963
-1.98817
527.578
-2.56788
-1.72443
528.973
-2.23039
-1.49688
530.18
-1.93497
-1.30121
-1.62968
-1.08516
542.039
14.9309
8.02966
534.344
45.5824
24.5995
131.674
86.2477
47.2591
-23.3642
-31.1881
-21.4355
-28.0694
134.22
132.917
134.82
-45.2796
-13.3876
133.74
38.5797
18.0216
-5.71516
-18.6721
-34.8235
36.454
16.104
6.6527
-1.42818
-8.14623
-12.5644
15.4507
5.47066
1.22014
0.840501
4.11255
-9.11445
8.15274
-3.76363
-0.227488
9.57442
-29.8289
2.9534
29.1118
-8.38976
-3.42102
1.97485
6.31
-28.0611
-2.32723
27.9177
-5.81424
1.45823
4.60322
-27.8109
27.847
-4.36085
-1.73669
1.12452
3.51939
-28.0775
28.1831
-3.40085
-1.3487
0.880313
2.73969
-28.5516
28.6849
-2.69144
-1.06187
0.693853
2.15061
-29.1002
29.2396
-2.14269
-0.841157
0.549909
1.69854
-29.6531
29.7867
-1.71259
-0.66951
0.438281
1.34954
-30.1728
30.2948
-1.37437
-0.535518
0.350674
1.07729
-30.6416
30.7497
-1.10629
-0.42979
0.280368
0.861427
-31.0537
31.1477
-0.891116
-0.344711
-31.4328
0.850411
2.65132
126.577
-2.86676
-1.24239
-31.5191
-31.4666
-31.5509
514.155
-9.3091
-4.76002
-127.249
-127.818
-127.502
-128.046
517.225
-7.8316
-3.99327
519.895
-6.63293
-3.37166
522.222
-5.65408
-2.86793
524.256
-4.85298
-2.45755
526.042
-4.19331
-2.12077
527.615
-3.6446
-1.84148
529.006
-3.1813
-1.60661
530.237
-2.77994
-1.40285
531.316
-2.42426
-1.22674
-2.06243
-1.0305
545.047
13.582
6.01404
543.062
39.8623
17.557
136.399
68.9064
30.637
137.052
136.606
137.348
-32.3529
138.248
27.6339
9.78761
-42.7146
-9.23595
147.614
33.9498
12.3847
-141.998
-9.57279
-2.17979
-38.8842
39.9262
2.52572
8.18461
-1.37955
-0.294369
-41.068
40.6069
0.392219
1.7428
4.88589
3.74559
-148.863
141.184
-10.8717
-4.59519
5.22066
4.47298
4.82099
5.19827
-135.042
4.19678
130.803
-14.3064
-5.5272
4.9156
5.00741
4.75446
4.30053
3.63657
-127.855
125.968
-13.3066
-4.94971
4.1188
4.12698
3.96002
3.52868
3.05262
-124.699
123.934
-11.673
-4.23084
3.39136
3.41163
3.28462
2.92394
2.56394
-123.477
123.283
-10.0974
-3.59435
2.81682
2.84084
2.74006
2.42903
2.15327
-123.268
123.396
-8.66118
-3.04451
2.34106
2.36871
2.28523
2.01466
1.80339
-123.635
123.949
-7.37694
-2.56823
1.94155
1.97078
1.90092
1.66742
1.50599
-124.329
124.739
-6.2459
-2.15795
1.60712
1.6355
1.57754
1.3782
1.25483
-125.184
125.632
-5.2641
-1.80759
1.32857
1.35493
1.30698
1.13739
1.04271
-126.096
126.545
-4.41726
-1.50908
1.09615
1.12041
1.0804
0.935565
0.862499
-126.998
127.428
-3.68868
-1.25422
0.90161
0.923252
0.890207
2.99674
-127.86
0.710681
128.272
-3.07847
-1.04052
519.179
-9.89683
-4.05839
-128.782
-129.361
-128.987
-129.545
521.434
-8.44793
-3.45258
523.451
-7.24373
-2.95094
525.255
-6.24409
-2.53713
526.867
-5.41119
-2.19438
528.309
-4.71516
-1.90938
529.601
-4.12938
-1.67055
530.76
-3.62998
-1.46806
531.802
-3.19449
-1.29135
532.73
-2.80519
-1.13789
-2.40823
-0.964687
546.941
11.577
4.36005
548.019
33.2594
12.3853
553.633
54.4502
20.2834
566.985
71.4079
26.7466
-23.6599
-26.0048
-21.9922
-24.1119
146.92
74.1226
27.6552
-27.3667
-25.9512
-25.3821
-24.0091
145.42
146.388
145.149
-21.4069
-3.63061
149.029
17.9481
4.98003
-6.7829
-1.25312
-149.397
148.162
7.43404
1.83696
558.357
-4.19196
-3.58408
5.64473
7.98591
4.57207
6.78702
-145.354
-144.217
-144.922
-143.992
541.465
-18.256
-8.42173
9.99119
10.1497
8.88625
9.17232
530.203
-24.2408
-9.95728
10.463
10.0876
9.61523
9.35201
523.277
-25.8537
-10.0083
9.78851
9.31457
9.14454
8.74956
519.326
-25.3316
-9.46948
8.81432
8.34531
8.31885
7.90741
517.399
-23.7817
-8.68435
7.78596
7.35032
7.40039
7.00971
516.842
-21.7584
-7.81254
6.79332
6.39764
6.49433
6.13394
517.209
-19.5635
-6.93288
5.87053
5.51888
5.63989
5.31567
518.171
-17.3606
-6.08813
5.03539
4.72657
4.85821
4.57061
519.499
-15.2423
-5.29972
4.2905
4.02098
4.15505
3.90207
521.029
-13.2651
-4.57947
3.63197
3.40074
3.52936
3.31099
522.666
-11.4757
-3.93424
3.06344
2.8617
2.9834
2.77966
524.269
-9.89884
-3.38259
525.787
-8.57614
-2.91981
527.203
-7.45155
-2.52908
528.511
-6.49773
-2.19986
529.712
-5.68774
-1.92212
530.811
-5.00052
-1.68788
531.817
-4.41516
-1.48943
532.738
-3.9114
-1.3198
533.582
-3.4694
-1.17099
534.35
-3.07171
-1.04133
-2.66156
-0.892559
547.936
9.39871
3.08324
550.369
26.9161
8.66466
555.724
43.0023
13.7144
564.728
54.8177
17.4614
574.535
56.4776
17.7581
577.905
44.3583
13.2437
-15.3046
-12.1563
-14.6138
-11.6294
572.702
24.9172
6.84799
-7.43947
-4.07905
-7.34229
-4.21126
561.715
6.15036
0.607509
550.919
-6.35713
-3.13209
542.264
-13.5334
-5.03066
535.998
-17.0996
-5.81904
531.738
-18.4374
-5.99359
529.022
-18.4562
-5.82544
527.45
-17.7018
-5.47546
526.718
-16.5223
-5.03387
526.59
-15.1253
-4.55466
526.889
-13.6437
-4.07035
527.482
-12.1671
-3.60202
528.26
-10.7578
-3.16454
529.144
-9.46563
-2.7715
530.052
-8.32564
-2.42921
530.951
-7.32921
-2.13288
531.819
-6.4645
-1.87765
532.646
-5.71595
-1.65825
533.426
-5.07119
-1.47051
534.16
-4.51555
-1.30969
534.85
-4.03335
-1.17121
535.499
-3.60833
-1.0493
536.107
-3.22456
-0.943003
-2.82176
-0.8186
548.329
7.34164
2.14639
551.172
21.3101
6.04532
555.989
33.9135
9.42854
562.648
42.8753
11.7798
569.124
44.5438
12.0376
571.782
37.2323
9.66825
569.311
24.5104
5.97324
563.108
11.1588
2.18835
556.038
0.789745
-0.538274
549.63
-6.22661
-2.25321
544.436
-10.5191
-3.22416
540.494
-12.8554
-3.69343
537.621
-13.8469
-3.84005
535.631
-13.9765
-3.78744
534.333
-13.5526
-3.61385
533.57
-12.7916
-3.37082
533.216
-11.8396
-3.09201
533.17
-10.7992
-2.80042
533.346
-9.74288
-2.51263
533.677
-8.72849
-2.24198
534.098
-7.79236
-1.9963
534.57
-6.94824
-1.77715
535.065
-6.19759
-1.58387
535.565
-5.53482
-1.41443
536.062
-4.95529
-1.26725
536.548
-4.45036
-1.13983
537.023
-4.00925
-1.02944
537.488
-3.61979
-0.932201
537.942
-3.26867
-0.847734
-2.89143
-0.746564
548.368
5.54826
1.48335
551.164
16.5646
4.2256
555.371
26.6738
6.59572
560.586
33.8981
8.21317
565.406
35.7973
8.50949
567.794
31.4462
7.24669
566.941
22.9294
5.06388
563.469
13.2769
2.67224
558.901
4.9213
0.713175
554.29
-1.38293
-0.692481
550.196
-5.73731
-1.62257
546.783
-8.47377
-2.17936
544.078
-10.0195
-2.47008
541.999
-10.711
-2.57827
540.454
-10.8149
-2.56416
539.347
-10.5282
-2.47087
538.597
-9.99267
-2.3286
538.131
-9.31141
-2.15896
537.889
-8.55997
-1.97784
537.815
-7.79675
-1.79771
537.862
-7.05996
-1.62646
537.992
-6.37328
-1.46846
538.179
-5.74686
-1.32539
538.404
-5.18251
-1.19729
538.655
-4.68169
-1.08428
538.923
-4.24103
-0.985425
539.204
-3.85444
-0.899423
539.5
-3.51412
-0.823934
539.809
-3.21069
-0.759068
-2.87483
-0.679325
548.214
4.04629
1.02341
550.76
12.6329
2.98091
554.393
20.8495
4.71517
558.686
26.8523
5.92088
562.647
28.9126
6.25624
565.005
26.442
5.59507
565.176
20.7047
4.27337
563.433
13.6789
2.71261
560.589
7.08344
1.30718
557.383
1.67405
0.190378
554.245
-2.35397
-0.624889
551.434
-5.14647
-1.17664
549.03
-6.92502
-1.52111
547.039
-7.93101
-1.71105
545.432
-8.37356
-1.7897
544.163
-8.41908
-1.79051
543.186
-8.19448
-1.73855
542.455
-7.79567
-1.65265
541.927
-7.29498
-1.54709
541.563
-6.74823
-1.43307
541.328
-6.19311
-1.31814
541.193
-5.65693
-1.20761
541.132
-5.15455
-1.10436
541.13
-4.69256
-1.00965
541.172
-4.27665
-0.924682
541.25
-3.90762
-0.849597
541.36
-3.58368
-0.784117
541.501
-3.30133
-0.727191
541.676
-3.05697
-0.679353
-2.77638
-0.618883
547.978
2.83003
0.710666
550.178
9.42982
2.14551
553.318
16.0841
3.46777
557.014
21.0779
4.42389
560.522
23.1487
4.78152
562.96
21.8806
4.46067
563.853
18.0573
3.64676
563.281
12.9787
2.6018
561.687
7.88518
1.57973
559.547
3.44087
0.701826
557.242
-0.0894304
0.00911419
554.998
-2.69353
-0.501842
552.94
-4.48302
-0.855887
551.123
-5.61461
-1.08407
549.558
-6.24267
-1.21587
548.239
-6.4997
-1.27591
547.144
-6.49258
-1.28406
546.25
-6.30522
-1.25605
545.532
-6.00255
-1.20425
544.964
-5.63526
-1.13855
544.521
-5.23835
-1.06594
544.18
-4.8391
-0.991873
543.923
-4.45407
-0.919782
543.734
-4.09238
-0.851646
543.601
-3.76219
-0.78928
543.516
-3.46728
-0.73357
543.474
-3.20957
-0.684946
543.475
-2.98953
-0.643407
543.526
-2.81191
-0.609903
-2.59923
-0.566454
547.686
1.87306
0.499825
549.541
6.82649
1.59105
552.294
12.08
2.64802
555.607
16.134
3.44642
558.89
18.0544
3.81225
561.462
17.5457
3.6888
562.903
15.0823
3.18407
563.162
11.5179
2.46768
562.493
7.71026
1.71088
561.209
4.21171
1.01539
559.595
1.29313
0.429708
557.863
-0.968109
-0.0325012
556.151
-2.60884
-0.377736
554.54
-3.72113
-0.622376
553.073
-4.41121
-0.785126
551.767
-4.77858
-0.883479
550.623
-4.90806
-0.932724
549.636
-4.86869
-0.945672
548.794
-4.71532
-0.932859
548.082
-4.49138
-0.902963
547.485
-4.2275
-0.862366
546.987
-3.94849
-0.816383
546.574
-3.67039
-0.76865
546.233
-3.40307
-0.721548
545.954
-3.15559
-0.677259
545.729
-2.93353
-0.637156
545.553
-2.74181
-0.602133
545.426
-2.58401
-0.573025
545.358
-2.4764
-0.551189
-2.34336
-0.522583
547.4
1.13735
0.35458
548.948
4.69761
1.22808
551.405
8.61474
2.12087
554.488
11.7079
2.82061
557.679
13.3397
3.18947
560.406
13.2907
3.18541
562.279
11.8211
2.87528
563.183
9.46083
2.37285
563.229
6.78294
1.79884
562.626
4.20209
1.23695
561.591
1.95588
0.735381
560.311
0.143205
0.316243
558.925
-1.22961
-0.0164021
557.529
-2.20824
-0.268771
556.184
-2.8593
-0.451648
554.926
-3.25173
-0.576977
553.776
-3.44783
-0.656265
552.74
-3.50027
-0.699837
551.818
-3.45195
-0.716624
551.006
-3.33741
-0.714257
550.295
-3.18151
-0.698608
549.676
-3.00483
-0.674754
549.138
-2.82125
-0.646406
548.673
-2.63995
-0.616182
548.27
-2.46952
-0.586481
547.923
-2.3161
-0.559011
547.628
-2.18676
-0.534929
547.38
-2.08652
-0.515692
547.195
-2.04581
-0.502978
-2.00247
-0.487241
547.159
0.581943
0.244368
548.463
2.91962
0.996358
550.722
5.49537
1.79984
553.667
7.59281
2.44394
556.835
8.81836
2.82032
559.723
9.0076
2.89719
561.963
8.26763
2.71661
563.388
6.89023
2.35754
564.02
5.21884
1.909
563.986
3.52801
1.44082
563.451
1.99555
0.999243
562.575
0.711929
0.61058
561.493
-0.29724
0.285858
560.309
-1.04703
0.0258574
559.098
-1.57263
-0.174391
557.911
-1.91553
-0.322524
556.779
-2.11591
-0.427043
555.723
-2.20918
-0.496259
554.752
-2.22498
-0.537803
553.869
-2.18762
-0.558482
553.072
-2.11495
-0.563778
552.358
-2.02198
-0.558571
551.719
-1.91912
-0.54661
551.148
-1.8137
-0.530699
550.639
-1.71255
-0.513372
550.184
-1.62111
-0.496598
549.778
-1.5474
-0.481658
549.414
-1.49515
-0.47038
549.102
-1.50723
-0.464476
-1.55569
-0.459877
547.007
0.193235
0.143103
548.135
1.37901
0.867956
550.235
2.61403
1.6333
553.064
3.6823
2.25653
556.228
4.37768
2.65673
559.284
4.59834
2.80525
561.871
4.36253
2.72437
563.776
3.7847
2.46983
564.948
3.017
2.10976
565.446
2.19402
1.70474
565.387
1.41323
1.30009
564.906
0.732413
0.92553
564.132
0.175977
0.597509
563.173
-0.254714
0.322397
562.115
-0.571274
0.0998689
561.018
-0.791229
-0.0742222
559.929
-0.933486
-0.205922
558.876
-1.01571
-0.301919
557.879
-1.05322
-0.368824
556.946
-1.05885
-0.412828
556.083
-1.0423
-0.439178
555.29
-1.0118
-0.452644
554.564
-0.973188
-0.457049
553.901
-0.930797
-0.455408
553.294
-0.888606
-0.450382
552.738
-0.849853
-0.444179
552.223
-0.821099
-0.438179
551.741
-0.803068
-0.434377
551.282
-0.836284
-0.43356
-0.945447
-0.438807
546.944
0.0675787
547.947
0.800376
549.822
1.56441
552.456
2.21015
555.564
2.67215
558.771
2.9183
561.721
2.95149
564.16
2.80521
565.958
2.53052
567.098
2.18037
567.637
1.80004
567.675
1.42371
567.324
1.07429
566.69
0.764666
565.868
0.500206
564.932
0.281192
563.939
0.104643
562.932
-0.0341762
561.94
-0.140724
560.982
-0.220591
560.069
-0.278917
559.207
-0.320476
558.398
-0.34933
557.642
-0.368836
556.935
-0.381953
556.271
-0.39125
555.641
-0.398244
555.031
-0.405791
554.393
-0.411155
-0.426358
535.662
6.00897
16.4589
126.092
20.0109
54.3696
126.842
129.111
129.631
-26.2133
119.566
5.8615
26.8783
-14.6613
-27.1641
25.5463
1.72274
14.5564
0.621019
1.3128
0.225993
-2.15984
-17.2569
8.66429
-0.950958
-8.73324
18.2768
5.88958
-20.5533
-0.662075
21.1993
-5.87352
4.08978
-22.9416
23.4669
-0.473552
-4.14146
2.92377
-24.8958
25.3257
-0.343961
-3.00973
2.13325
-26.4893
26.838
-0.25342
-2.2285
1.58493
-27.7785
28.0596
-0.189566
-1.67645
1.19784
-28.8168
29.0429
-0.14399
-1.27995
0.917235
-29.6518
29.8335
-0.110738
-0.988221
0.706152
-30.3224
30.4683
-0.0855829
-0.766421
-30.8744
2.10176
124.546
-0.501281
-2.47973
-30.8807
-30.953
-30.9591
507.937
-2.87563
-8.38549
-125.416
-125.514
-125.938
-126.029
512.156
-2.37312
-6.93334
515.708
-1.97092