/*--------------------------------*- C++ -*----------------------------------*\
  =========                 |
  \\      /  F ield         | OpenFOAM: The Open Source CFD Toolbox
   \\    /   O peration     | Website:  https://openfoam.org
    \\  /    A nd           | Version:  10
     \\/     M anipulation  |
\*---------------------------------------------------------------------------*/
FoamFile
{
    format      ascii;
    class       volVectorField;
    location    "400";
    object      U;
}
// * * * * * * * * * * * * * * * * * * * * * * * * * * * * * * * * * * * * * //

dimensions      [0 1 -1 0 0 0 0];

internalField   nonuniform List<vector> 
27507
(
(13.8851 0.0864147 0.086121)
(13.063 0.333821 0.334674)
(10.9971 0.373694 0.371341)
(4.96797 0.522087 0.493818)
(-0.232052 -0.0978646 -0.112091)
(3.06701 -0.154004 -0.160737)
(6.03049 -0.117385 -0.119834)
(8.12826 -0.0813948 -0.0823079)
(9.56874 -0.0561013 -0.0565023)
(10.5697 -0.0394371 -0.0396635)
(11.2828 -0.0284623 -0.0286114)
(11.8038 -0.021018 -0.0211016)
(12.191 -0.015682 -0.0156942)
(12.5123 -0.0223136 -0.0222789)
(12.7794 -0.0327625 -0.0327408)
(12.934 -0.0266124 -0.0266103)
(13.0576 -0.0217695 -0.0217778)
(13.1601 -0.0180165 -0.0180294)
(13.2458 -0.0150819 -0.0150964)
(13.318 -0.0127486 -0.0127632)
(13.3795 -0.0108654 -0.0108793)
(13.432 -0.00932844 -0.00934115)
(13.4779 -0.00799236 -0.0080037)
(13.5145 -0.00698021 -0.00699016)
(13.5583 -0.0054311 -0.00543991)
(13.8905 0.229209 0.0752871)
(13.2543 0.846744 0.279891)
(11.6562 1.60508 0.315937)
(7.1951 3.72484 0.425169)
(1.5906 -1.27524 -0.138515)
(4.96728 -1.30121 -0.146194)
(7.29421 -0.930556 -0.104611)
(8.89813 -0.64625 -0.0723248)
(10.0336 -0.45354 -0.050601)
(10.8553 -0.324955 -0.0362001)
(11.462 -0.238264 -0.0265222)
(11.9182 -0.178163 -0.0198088)
(12.2655 -0.13455 -0.0149136)
(12.574 -0.108548 -0.0213493)
(12.837 -0.0947108 -0.0311942)
(12.9787 -0.0769975 -0.0254644)
(13.0932 -0.0631943 -0.0209323)
(13.1887 -0.0524649 -0.0173961)
(13.2692 -0.0440455 -0.0146149)
(13.3374 -0.0373284 -0.0123921)
(13.3957 -0.0318879 -0.0105902)
(13.4459 -0.0274209 -0.00911318)
(13.4897 -0.0235714 -0.00782953)
(13.5251 -0.0204343 -0.00685328)
(13.5672 -0.0165099 -0.00532461)
(13.9144 0.304848 0.0602477)
(13.5012 1.0338 0.204456)
(12.6283 2.05533 0.22296)
(10.7386 4.52288 0.269661)
(0.180714 0.945621 -0.0972314)
(7.08527 -2.55555 -0.151966)
(8.4963 -1.78153 -0.103913)
(9.48687 -1.25907 -0.0740841)
(10.2796 -0.910042 -0.0535882)
(10.92 -0.669543 -0.039368)
(11.4359 -0.500663 -0.0294019)
(11.8507 -0.380252 -0.0223125)
(12.184 -0.292471 -0.0171414)
(12.4514 -0.226369 -0.0132194)
(12.7111 -0.177373 -0.0192943)
(12.9435 -0.144121 -0.02835)
(13.0624 -0.118271 -0.0233611)
(13.1606 -0.0979569 -0.0193698)
(13.2438 -0.0819257 -0.0162168)
(13.3148 -0.0692054 -0.0137097)
(13.3756 -0.0589682 -0.0116882)
(13.4282 -0.0506125 -0.0100373)
(13.4738 -0.0436908 -0.00867525)
(13.514 -0.0377458 -0.00748713)
(13.5467 -0.0326283 -0.00657983)
(13.5859 -0.0271723 -0.00513627)
(13.9535 0.319118 0.046042)
(13.7103 1.02488 0.144915)
(13.4551 2.08112 0.300389)
(13.1489 3.70576 0.280809)
(13.9636 6.3639 0.261066)
(4.9706 2.93239 0.111418)
(8.8341 -2.62753 -0.250452)
(11.291 -3.18739 -0.132795)
(10.9924 -2.10559 -0.084793)
(11.0519 -1.53926 -0.0613596)
(11.2565 -1.17215 -0.0467235)
(11.5206 -0.90824 -0.0361882)
(11.797 -0.710047 -0.0282568)
(12.0608 -0.558926 -0.0222209)
(12.3003 -0.442861 -0.0175959)
(12.511 -0.352634 -0.0139991)
(12.6927 -0.281197 -0.0111252)
(12.8905 -0.221949 -0.0166787)
(13.0797 -0.177515 -0.0248013)
(13.1719 -0.147645 -0.0206866)
(13.2504 -0.123755 -0.017348)
(13.3183 -0.104543 -0.0146681)
(13.3774 -0.0890552 -0.0125053)
(13.4288 -0.0764315 -0.0107408)
(13.4739 -0.0660196 -0.00928535)
(13.5135 -0.0573127 -0.00807489)
(13.5488 -0.0498 -0.00701257)
(13.5778 -0.0432151 -0.00619716)
(13.6131 -0.0364293 -0.00488558)
(13.9815 0.298416 0.0337801)
(13.882 0.902985 0.0996714)
(13.841 1.6479 0.180784)
(14.1098 2.46662 0.270877)
(14.7486 3.26875 0.195749)
(16.3386 3.04577 0.0926561)
(17.0777 0.402043 0.00651094)
(14.779 -1.36875 -0.0847464)
(13.4105 -1.48955 -0.0893502)
(12.8096 -1.27712 -0.0757422)
(12.567 -1.0693 -0.0627807)
(12.4941 -0.896431 -0.0522751)
(12.5115 -0.750608 -0.0436035)
(12.5794 -0.626395 -0.0363133)
(12.6736 -0.521112 -0.0301829)
(12.7786 -0.432542 -0.0250487)
(12.8847 -0.358099 -0.0207365)
(12.986 -0.295103 -0.0170793)
(13.0815 -0.242955 -0.0139972)
(13.2279 -0.195295 -0.0210698)
(13.2941 -0.16487 -0.0178124)
(13.3526 -0.140031 -0.015131)
(13.4048 -0.119658 -0.0129403)
(13.4512 -0.102929 -0.0111413)
(13.4924 -0.0890881 -0.00965343)
(13.5292 -0.0775334 -0.00841233)
(13.5619 -0.0677723 -0.00737098)
(13.5916 -0.059292 -0.00645078)
(13.6164 -0.0517798 -0.00574136)
(13.6471 -0.0440597 -0.00458509)
(13.9972 0.259381 0.0241608)
(13.9855 0.753507 0.0689715)
(14.0308 1.27497 0.115829)
(14.2671 1.74096 0.158622)
(14.7671 1.80801 0.163395)
(15.2531 1.60287 0.0756803)
(15.3444 0.553537 0.0240356)
(14.5449 -0.290736 -0.0325517)
(13.9875 -0.574152 -0.0571186)
(13.6094 -0.661652 -0.0619753)
(13.3824 -0.655183 -0.0595802)
(13.2534 -0.611004 -0.0546999)
(13.1887 -0.553263 -0.0490646)
(13.1673 -0.491977 -0.0433656)
(13.1748 -0.431879 -0.0379184)
(13.2009 -0.375349 -0.0328757)
(13.2382 -0.323403 -0.0282875)
(13.2815 -0.276449 -0.0241718)
(13.3281 -0.234576 -0.0205519)
(13.3746 -0.199966 -0.0175032)
(13.4185 -0.171483 -0.0150079)
(13.4591 -0.14761 -0.0129276)
(13.4966 -0.127647 -0.0111909)
(13.5308 -0.110943 -0.00973838)
(13.562 -0.0969027 -0.00851949)
(13.5904 -0.0850319 -0.00749071)
(13.6163 -0.0749019 -0.00662006)
(13.6402 -0.0660374 -0.00584575)
(13.6604 -0.0581213 -0.00524713)
(13.6863 -0.0499155 -0.00425607)
(14.0057 0.21375 0.0169305)
(14.0388 0.611791 0.0475923)
(14.1217 0.990304 0.0766037)
(14.3161 1.28579 0.0997335)
(14.6134 1.31395 0.10015)
(14.8425 0.991275 0.0728382)
(14.8126 0.487113 0.0339464)
(14.5391 0.0252579 -0.00191408)
(14.2097 -0.248743 -0.0217318)
(13.94 -0.384796 -0.0308264)
(13.745 -0.438593 -0.033982)
(13.6118 -0.44683 -0.0339565)
(13.5262 -0.430579 -0.0323173)
(13.4758 -0.401605 -0.0298954)
(13.4511 -0.366568 -0.0271325)
(13.4448 -0.329353 -0.0242828)
(13.4515 -0.29225 -0.0214903)
(13.467 -0.256756 -0.0188453)
(13.4884 -0.223739 -0.0164165)
(13.513 -0.194592 -0.0142739)
(13.5388 -0.169484 -0.0124436)
(13.5643 -0.147898 -0.0108724)
(13.5889 -0.129435 -0.00952991)
(13.6122 -0.113678 -0.00838597)
(13.6342 -0.100225 -0.00741155)
(13.6548 -0.0887068 -0.00657941)
(13.674 -0.0787856 -0.00586973)
(13.6922 -0.0700499 -0.00523555)
(13.708 -0.0622044 -0.00474495)
(13.729 -0.0539443 -0.00391928)
(14.0094 0.168999 0.0116895)
(14.0611 0.485473 0.032745)
(14.1536 0.773418 0.0515401)
(14.311 0.982723 0.0651353)
(14.5108 1.01144 0.0657972)
(14.6558 0.814661 0.0516537)
(14.6555 0.495147 0.030225)
(14.5149 0.174017 0.00906255)
(14.3157 -0.0557686 -0.00537098)
(14.1276 -0.19913 -0.0140743)
(13.9726 -0.279055 -0.0187089)
(13.8536 -0.316254 -0.0206869)
(13.7667 -0.326305 -0.0210451)
(13.706 -0.319672 -0.0204396)
(13.666 -0.303117 -0.0192729)
(13.6419 -0.281002 -0.017803)
(13.6301 -0.256155 -0.0161939)
(13.6273 -0.230528 -0.014556)
(13.6313 -0.205481 -0.0129688)
(13.64 -0.18206 -0.011504)
(13.6516 -0.161039 -0.0101959)
(13.6647 -0.142426 -0.00903756)
(13.6785 -0.12611 -0.00802341)
(13.6925 -0.111908 -0.00714205)
(13.7064 -0.099592 -0.0063796)
(13.7199 -0.0889224 -0.00572106)
(13.733 -0.0796588 -0.00515586)
(13.7459 -0.0714696 -0.00464987)
(13.7575 -0.0641009 -0.0042593)
(13.7737 -0.0561741 -0.00359202)
(14.01 0.129097 0.00800861)
(14.0656 0.378307 0.0226225)
(14.1545 0.604844 0.0354359)
(14.2838 0.766278 0.0443182)
(14.4309 0.800867 0.0455029)
(14.5383 0.684154 0.0380052)
(14.557 0.473365 0.0256924)
(14.4869 0.244364 0.0125667)
(14.367 0.0577351 0.00226779)
(14.2382 -0.0758734 -0.00494846)
(14.1203 -0.162862 -0.00955366)
(14.0211 -0.213883 -0.0121894)
(13.9416 -0.239388 -0.0134628)
(13.8803 -0.247486 -0.0138227)
(13.8345 -0.244107 -0.013585)
(13.8016 -0.233429 -0.01297)
(13.779 -0.218353 -0.0121295)
(13.7647 -0.200954 -0.0111712)
(13.757 -0.182724 -0.0101736)
(13.7543 -0.164787 -0.00919892)
(13.7553 -0.147966 -0.00828773)
(13.7587 -0.132571 -0.00745387)
(13.7638 -0.118724 -0.00670415)
(13.77 -0.106425 -0.00603869)
(13.7769 -0.0955939 -0.00545378)
(13.7843 -0.0861072 -0.00494309)
(13.792 -0.0778229 -0.00450275)
(13.8 -0.0704964 -0.00410966)
(13.8076 -0.0639364 -0.003808)
(13.8194 -0.0566801 -0.0032875)
(14.0087 0.0953931 0.0054864)
(14.0605 0.289953 0.0158103)
(14.1407 0.472089 0.0249887)
(14.2491 0.603534 0.0313716)
(14.3666 0.642855 0.0329161)
(14.4568 0.575253 0.0290006)
(14.4894 0.434382 0.0216669)
(14.4615 0.268846 0.0132243)
(14.3925 0.120321 0.00586023)
(14.307 0.00352175 0.000129417)
(14.2203 -0.0803315 -0.00396549)
(14.1409 -0.135739 -0.00666813)
(14.0723 -0.168982 -0.00830217)
(14.0152 -0.185923 -0.0091532)
(13.9689 -0.191336 -0.00944968)
(13.9323 -0.188869 -0.00936415)
(13.9039 -0.181214 -0.0090242)
(13.8827 -0.17037 -0.00852498)
(13.8673 -0.157818 -0.00793787)
(13.8566 -0.144674 -0.00731795)
(13.8498 -0.131752 -0.00670533)
(13.8458 -0.11951 -0.00612169)
(13.844 -0.108202 -0.00558042)
(13.8439 -0.0979509 -0.00508847)
(13.845 -0.088786 -0.00464861)
(13.8471 -0.080681 -0.00426047)
(13.8499 -0.0735837 -0.00392485)
(13.8537 -0.0673393 -0.00362817)
(13.8577 -0.061847 -0.00340276)
(13.8652 -0.0555537 -0.00301495)
(14.0063 0.0679176 0.0037907)
(14.0507 0.218155 0.0112803)
(14.1209 0.365662 0.018178)
(14.2141 0.475016 0.0231294)
(14.3144 0.516279 0.0248541)
(14.3971 0.479543 0.0229252)
(14.4408 0.385296 0.0184573)
(14.4407 0.265538 0.0128654)
(14.4066 0.149586 0.00753451)
(14.3531 0.0516947 0.00303031)
(14.2918 -0.0237043 -0.00046815)
(14.2305 -0.077549 -0.00300633)
(14.1734 -0.113165 -0.00473307)
(14.1225 -0.134503 -0.00581869)
(14.0785 -0.145199 -0.0064199)
(14.0412 -0.148227 -0.00666435)
(14.0103 -0.145921 -0.00665373)
(13.985 -0.140083 -0.00646799)
(13.9646 -0.13208 -0.00616939)
(13.9485 -0.122954 -0.00580667)
(13.936 -0.113477 -0.0054169)
(13.9264 -0.10415 -0.00502425)
(13.9192 -0.095289 -0.00464527)
(13.914 -0.087087 -0.00429073)
(13.9103 -0.0796463 -0.00396733)
(13.9079 -0.0730131 -0.0036788)
(13.9066 -0.0672138 -0.00342888)
(13.9065 -0.0621805 -0.0032124)
(13.9071 -0.0579442 -0.0030501)
(13.9107 -0.0528747 -0.00278004)
(14.0033 0.0461599 0.00265938)
(14.039 0.160181 0.00830358)
(14.0998 0.278341 0.0137548)
(14.1821 0.368454 0.0178398)
(14.2728 0.408383 0.0196357)
(14.3529 0.391149 0.0188363)
(14.4059 0.329294 0.0160814)
(14.4257 0.243969 0.0122783)
(14.4165 0.155798 0.00834693)
(14.3874 0.0769593 0.00478342)
(14.3468 0.0128145 0.0018195)
(14.3011 -0.0356558 -0.000491678)
(14.255 -0.0698673 -0.00219691)
(14.211 -0.0922759 -0.00338847)
(14.1706 -0.105467 -0.00416667)
(14.1345 -0.111742 -0.00462259)
(14.1027 -0.113009 -0.00483476)
(14.0753 -0.110796 -0.00486855)
(14.0519 -0.106296 -0.00477717)
(14.0321 -0.100428 -0.00460344)
(14.0155 -0.0938845 -0.00438115)
(14.0017 -0.087149 -0.00413469)
(13.9903 -0.0805493 -0.00388196)
(13.9809 -0.0743046 -0.00363575)
(13.9732 -0.0685574 -0.00340515)
(13.967 -0.0634024 -0.00319668)
(13.9621 -0.0589306 -0.00301563)
(13.9585 -0.0551515 -0.0028645)
(13.9561 -0.0522835 -0.00275232)
(13.9557 -0.048681 -0.0025855)
(13.9999 0.0294016 0.00188809)
(14.0272 0.113322 0.00636708)
(14.0805 0.204577 0.0109278)
(14.1555 0.275841 0.0144849)
(14.2411 0.311381 0.0163094)
(14.3213 0.306187 0.0161801)
(14.3822 0.267611 0.0144881)
(14.4171 0.20918 0.011837)
(14.4269 0.145028 0.00886673)
(14.4168 0.0847232 0.00599407)
(14.393 0.0333668 0.00345539)
(14.3609 -0.007218 0.00135343)
(14.3248 -0.0372986 -0.000300216)
(14.2877 -0.0582109 -0.00154364)
(14.2514 -0.071661 -0.00243552)
(14.2173 -0.0793172 -0.00303841)
(14.1858 -0.0826414 -0.00341161)
(14.1575 -0.0828471 -0.00360788)
(14.1321 -0.080907 -0.00367239)
(14.1098 -0.077583 -0.00364292)
(14.0903 -0.0734588 -0.00355033)
(14.0733 -0.0689583 -0.00341851)
(14.0586 -0.0643823 -0.00326583)
(14.0459 -0.0599447 -0.00310626)
(14.0349 -0.0557991 -0.00295032)
(14.0254 -0.052064 -0.00280658)
(14.0174 -0.048879 -0.00268066)
(14.0105 -0.0463108 -0.00258231)
(14.0053 -0.044823 -0.00250773)
(14.0008 -0.0429171 -0.00243129)
(13.997 0.0167525 0.00131059)
(14.0174 0.0750832 0.00513986)
(14.0651 0.140179 0.00921565)
(14.1354 0.192033 0.0124754)
(14.2182 0.22065 0.0143402)
(14.2999 0.22235 0.0146504)
(14.3679 0.200784 0.0136536)
(14.4151 0.163947 0.0117659)
(14.4402 0.120879 0.00945394)
(14.4458 0.0784102 0.00706747)
(14.4363 0.0407244 0.00483555)
(14.4161 0.00975697 0.00288542)
(14.3892 -0.01413 0.00126651)
(14.3586 -0.0315128 -2.19994e-05)
(14.3267 -0.0433922 -0.00100832)
(14.295 -0.050861 -0.00173282)
(14.2646 -0.0549374 -0.00223931)
(14.236 -0.0565005 -0.00257021)
(14.2096 -0.0562734 -0.00276406)
(14.1856 -0.054833 -0.0028546)
(14.1639 -0.0526278 -0.00287042)
(14.1444 -0.0499932 -0.00283482)
(14.127 -0.0471743 -0.00276643)
(14.1115 -0.0443533 -0.0026801)
(14.0977 -0.0416696 -0.00258724)
(14.0854 -0.0392415 -0.00249819)
(14.0745 -0.0372334 -0.0024178)
(14.0646 -0.0357367 -0.00236297)
(14.0566 -0.0354736 -0.00231412)
(14.0474 -0.0354109 -0.00231637)
(13.996 0.00671831 0.000762608)
(14.0112 0.0432487 0.0044875)
(14.0545 0.0821861 0.00837114)
(14.1206 0.114182 0.0115154)
(14.2013 0.133837 0.0134958)
(14.2849 0.138453 0.0141727)
(14.36 0.129036 0.0136852)
(14.4187 0.109571 0.0123305)
(14.4578 0.085009 0.0104654)
(14.4779 0.0595168 0.00839575)
(14.4819 0.0359527 0.00634709)
(14.4731 0.0158856 0.00446533)
(14.4553 -0.000136156 0.002828)
(14.4316 -0.0122319 0.00146266)
(14.4044 -0.0208723 0.000364276)
(14.3757 -0.0266592 -0.000490339)
(14.3468 -0.0301984 -0.00113292)
(14.3186 -0.0320355 -0.00159789)
(14.2918 -0.0326305 -0.00191878)
(14.2667 -0.0323562 -0.00212635)
(14.2433 -0.0315049 -0.00224768)
(14.2219 -0.0303004 -0.00230577)
(14.2022 -0.028906 -0.00231953)
(14.1843 -0.0274516 -0.00230476)
(14.1679 -0.0260326 -0.0022734)
(14.153 -0.0247413 -0.00223749)
(14.1394 -0.023735 -0.00220068)
(14.1263 -0.0230387 -0.00218546)
(14.1157 -0.0235912 -0.00215483)
(14.1001 -0.0253196 -0.00222492)
(13.9982 0.000719662 0.000333923)
(14.0095 0.0169039 0.00418291)
(14.0463 0.0346596 0.00813651)
(14.1063 0.0508786 0.0114387)
(14.1831 0.0628899 0.0137766)
(14.2677 0.0688406 0.0149828)
(14.3499 0.0682628 0.0150837)
(14.4213 0.0621649 0.0142658)
(14.4765 0.0524334 0.0128035)
(14.5139 0.0410053 0.0109716)
(14.5345 0.0294559 0.0090021)
(14.5405 0.0188561 0.00706862)
(14.5349 0.00978638 0.00528514)
(14.5208 0.00244655 0.003714)
(14.5007 -0.00320735 0.00237945)
(14.477 -0.00735889 0.00128007)
(14.4512 -0.0102522 0.000398591)
(14.4246 -0.0121398 -0.000290581)
(14.3983 -0.0132531 -0.000816272)
(14.3727 -0.0137913 -0.00120734)
(14.3482 -0.0139173 -0.0014906)
(14.325 -0.0137608 -0.00168998)
(14.3033 -0.0134207 -0.0018259)
(14.2829 -0.0129747 -0.00191604)
(14.264 -0.0124853 -0.00197413)
(14.2462 -0.0119983 -0.00201449)
(14.2297 -0.0116152 -0.0020408)
(14.2129 -0.0113303 -0.00208063)
(14.2002 -0.0115461 -0.00208219)
(14.174 -0.0132901 -0.00219153)
(13.8905 0.0751608 0.229201)
(13.2544 0.278847 0.84782)
(11.6551 0.312677 1.60821)
(7.23085 0.404078 3.75318)
(1.63075 -0.121577 -1.40718)
(4.99976 -0.141705 -1.34714)
(7.3056 -0.102899 -0.946452)
(8.90193 -0.0716364 -0.652469)
(10.035 -0.0502803 -0.456445)
(10.8558 -0.0360142 -0.326661)
(11.4621 -0.0263964 -0.239422)
(11.9181 -0.0197302 -0.178861)
(12.2652 -0.0148864 -0.13474)
(12.5738 -0.0213583 -0.108487)
(12.8368 -0.0311991 -0.0947108)
(12.9786 -0.0254585 -0.0770255)
(13.0931 -0.0209198 -0.0632378)
(13.1887 -0.0173807 -0.0525144)
(13.2691 -0.0145987 -0.0440959)
(13.3373 -0.0123762 -0.037377)
(13.3957 -0.0105752 -0.0319331)
(13.4458 -0.00909935 -0.0274621)
(13.4897 -0.00781708 -0.0236083)
(13.5251 -0.00684222 -0.0204668)
(13.5672 -0.00531467 -0.0165387)
(13.9021 0.202501 0.202713)
(13.3901 0.720828 0.722104)
(12.1374 1.37623 1.37978)
(8.8448 3.13811 3.12925)
(3.83068 -1.39477 -1.40982)
(6.59365 -1.15538 -1.17678)
(8.30268 -0.813757 -0.824166)
(9.51882 -0.572784 -0.577457)
(10.4209 -0.409477 -0.411812)
(11.1017 -0.29843 -0.299838)
(11.6219 -0.221873 -0.22285)
(12.0236 -0.167745 -0.168387)
(12.3362 -0.127956 -0.128234)
(12.6323 -0.103732 -0.10377)
(12.8908 -0.0902321 -0.0902692)
(13.0208 -0.0737279 -0.0737726)
(13.127 -0.0607827 -0.0608344)
(13.2162 -0.0506518 -0.0507062)
(13.2918 -0.0426592 -0.0427129)
(13.3562 -0.0362542 -0.0363054)
(13.4116 -0.0310467 -0.0310944)
(13.4595 -0.0267557 -0.0267994)
(13.5014 -0.0230552 -0.0230946)
(13.5357 -0.0200241 -0.0200592)
(13.576 -0.0162025 -0.0162341)
(13.9295 0.274277 0.164523)
(13.5813 0.910262 0.545309)
(12.8815 1.8016 0.998784)
(11.839 4.05985 2.28149)
(9.33078 7.01504 3.7968)
(4.47124 -2.69434 -1.3646)
(8.4913 -2.2249 -1.1607)
(9.34657 -1.55069 -0.816878)
(10.0479 -1.1155 -0.591635)
(10.6563 -0.820737 -0.435485)
(11.1756 -0.613474 -0.325161)
(11.6111 -0.464879 -0.246203)
(11.9718 -0.356889 -0.188931)
(12.2683 -0.276919 -0.146498)
(12.5108 -0.21609 -0.11405)
(12.7616 -0.169878 -0.0937849)
(12.9909 -0.137596 -0.0821347)
(13.1003 -0.11344 -0.0677716)
(13.1914 -0.094344 -0.0563577)
(13.2692 -0.0791782 -0.0473119)
(13.3359 -0.0670816 -0.0400958)
(13.3935 -0.0573065 -0.0342613)
(13.4434 -0.0493002 -0.0294822)
(13.4869 -0.0426471 -0.0255192)
(13.5253 -0.0369243 -0.0220871)
(13.557 -0.0319675 -0.0192612)
(13.5945 -0.0267272 -0.0156674)
(13.963 0.291995 0.126931)
(13.7643 0.92178 0.395813)
(13.5842 1.81913 0.780501)
(13.4057 3.17884 1.22989)
(14.2517 5.24039 1.89397)
(17.7633 6.36522 1.90304)
(14.3073 -4.09369 -1.41053)
(11.9207 -2.67921 -0.966826)
(11.4358 -1.84152 -0.662294)
(11.3943 -1.37636 -0.493786)
(11.521 -1.06485 -0.382227)
(11.7216 -0.835959 -0.299951)
(11.948 -0.660868 -0.236886)
(12.1735 -0.525109 -0.188075)
(12.3841 -0.419295 -0.150112)
(12.5733 -0.336071 -0.120248)
(12.7392 -0.269715 -0.0962708)
(12.9318 -0.213332 -0.0810398)
(13.1196 -0.169982 -0.0719557)
(13.2046 -0.141932 -0.0601166)
(13.2775 -0.119389 -0.0505482)
(13.3411 -0.101163 -0.0428434)
(13.3966 -0.086403 -0.0366074)
(13.4453 -0.0743296 -0.0315064)
(13.4881 -0.0643407 -0.0272881)
(13.5258 -0.0559647 -0.0237629)
(13.5595 -0.0487273 -0.0206921)
(13.5876 -0.0423444 -0.0181502)
(13.6214 -0.0358531 -0.014886)
(13.9857 0.276197 0.0941272)
(13.9097 0.826721 0.277413)
(13.8839 1.48709 0.492264)
(13.98 2.28268 0.646685)
(14.7365 2.88331 0.84351)
(16.0787 2.67858 0.718939)
(16.6447 0.484427 0.115004)
(14.7779 -1.06431 -0.324781)
(13.5598 -1.27352 -0.382133)
(12.9752 -1.13448 -0.337311)
(12.7201 -0.969249 -0.28549)
(12.6284 -0.823039 -0.240798)
(12.6257 -0.696038 -0.20281)
(12.6742 -0.585794 -0.170262)
(12.7511 -0.490915 -0.142475)
(12.8413 -0.410062 -0.118914)
(12.9351 -0.341412 -0.0989623)
(13.0267 -0.282968 -0.0819952)
(13.1146 -0.234362 -0.0677323)
(13.2606 -0.187515 -0.061177)
(13.3216 -0.158845 -0.0518449)
(13.3759 -0.135322 -0.0441523)
(13.4247 -0.115938 -0.0378417)
(13.4683 -0.0999614 -0.0326461)
(13.5073 -0.086702 -0.0283382)
(13.5421 -0.0756029 -0.0247366)
(13.5734 -0.0662048 -0.021701)
(13.6017 -0.0580303 -0.0190397)
(13.6257 -0.0507466 -0.0168262)
(13.6551 -0.0433672 -0.013947)
(13.9994 0.242232 0.0677944)
(13.999 0.700499 0.193694)
(14.0537 1.16947 0.321078)
(14.2873 1.5605 0.431851)
(14.7254 1.63562 0.447019)
(15.1748 1.48116 0.338399)
(15.2576 0.554616 0.120375)
(14.5442 -0.212577 -0.0744346)
(14.0414 -0.490466 -0.146179)
(13.6842 -0.58774 -0.165165)
(13.4612 -0.593703 -0.162218)
(13.3296 -0.560674 -0.150992)
(13.2593 -0.512382 -0.13681)
(13.231 -0.459035 -0.121892)
(13.231 -0.405541 -0.107293)
(13.2498 -0.354448 -0.0935601)
(13.2804 -0.306977 -0.0809328)
(13.3177 -0.263749 -0.0695303)
(13.3591 -0.224979 -0.0594299)
(13.4012 -0.192464 -0.050857)
(13.4413 -0.165527 -0.0437424)
(13.4789 -0.142857 -0.0377709)
(13.5138 -0.123822 -0.0327625)
(13.5459 -0.107841 -0.0285615)
(13.5753 -0.094371 -0.0250274)
(13.6022 -0.082956 -0.0220386)
(13.6268 -0.0731956 -0.0194986)
(13.6495 -0.0646476 -0.0172585)
(13.6691 -0.0569711 -0.0153891)
(13.6939 -0.0491318 -0.0129185)
(14.0067 0.200957 0.0477303)
(14.0447 0.574168 0.134405)
(14.1312 0.922997 0.214462)
(14.318 1.1848 0.275586)
(14.591 1.21748 0.279356)
(14.8019 0.929507 0.204474)
(14.7786 0.475249 0.101815)
(14.5344 0.052042 0.00191122)
(14.2315 -0.208456 -0.0554619)
(13.9759 -0.343645 -0.0829953)
(13.787 -0.400873 -0.0935238)
(13.6556 -0.413722 -0.09471)
(13.5691 -0.402187 -0.0909834)
(13.5165 -0.377624 -0.0847628)
(13.4887 -0.346548 -0.0773717)
(13.479 -0.312811 -0.0695835)
(13.4822 -0.278731 -0.0618524)
(13.4944 -0.245838 -0.0544692)
(13.5126 -0.215008 -0.0476407)
(13.5344 -0.187611 -0.0415607)
(13.5577 -0.163844 -0.03632)
(13.581 -0.14331 -0.0318027)
(13.6037 -0.125677 -0.0279271)
(13.6254 -0.110582 -0.0246147)
(13.646 -0.0976603 -0.0217863)
(13.6654 -0.0865757 -0.0193668)
(13.6836 -0.0770118 -0.017295)
(13.7009 -0.0685871 -0.0154602)
(13.7161 -0.0609796 -0.0139275)
(13.7361 -0.0530949 -0.0118651)
(14.0097 0.159731 0.0330957)
(14.0629 0.458786 0.0930281)
(14.1558 0.728491 0.145797)
(14.3077 0.9211 0.182968)
(14.4961 0.951077 0.186201)
(14.6334 0.773623 0.147594)
(14.6365 0.480374 0.0889453)
(14.5091 0.181948 0.0295183)
(14.3239 -0.0367583 -0.0121094)
(14.1451 -0.176156 -0.0376878)
(13.9957 -0.255659 -0.0517014)
(13.8795 -0.294206 -0.0580474)
(13.7935 -0.306366 -0.059614)
(13.7326 -0.302081 -0.0582888)
(13.6916 -0.287863 -0.0552482)
(13.6661 -0.267955 -0.0512529)
(13.6526 -0.245136 -0.0467943)
(13.648 -0.221337 -0.0422059)
(13.6502 -0.197893 -0.0377256)
(13.6571 -0.175815 -0.0335509)
(13.6671 -0.155877 -0.0297976)
(13.6787 -0.138143 -0.0264628)
(13.6912 -0.122542 -0.023532)
(13.7041 -0.108922 -0.0209775)
(13.7169 -0.0970831 -0.0187625)
(13.7295 -0.0868093 -0.0168467)
(13.7418 -0.0778775 -0.015196)
(13.7539 -0.0699818 -0.0137323)
(13.765 -0.0628392 -0.0125131)
(13.7804 -0.0552826 -0.0108404)
(14.0099 0.122543 0.022761)
(14.0655 0.359467 0.0646265)
(14.1536 0.57413 0.101086)
(14.2792 0.726068 0.126075)
(14.4204 0.760635 0.130118)
(14.5241 0.654321 0.109683)
(14.5447 0.458641 0.0753836)
(14.4812 0.243733 0.0382322)
(14.3691 0.0657263 0.0084866)
(14.2466 -0.0633929 -0.0126068)
(14.1331 -0.148557 -0.0262637)
(14.0366 -0.19935 -0.0342433)
(13.9587 -0.225505 -0.0382429)
(13.898 -0.2347 -0.0395453)
(13.8523 -0.232612 -0.0390659)
(13.8189 -0.223278 -0.0374481)
(13.7956 -0.209521 -0.0351397)
(13.7805 -0.193369 -0.0324594)
(13.7718 -0.176282 -0.0296398)
(13.7681 -0.159343 -0.0268607)
(13.768 -0.143365 -0.0242459)
(13.7705 -0.128681 -0.0218435)
(13.7747 -0.115428 -0.0196756)
(13.7801 -0.103624 -0.0177458)
(13.7862 -0.0932075 -0.0160459)
(13.7929 -0.0840708 -0.0145597)
(13.7999 -0.0760841 -0.0132737)
(13.8074 -0.0690251 -0.0121369)
(13.8146 -0.0626717 -0.011198)
(13.8256 -0.0557683 -0.00988544)
(14.0085 0.0908528 0.0156397)
(14.0597 0.276648 0.045383)
(14.1387 0.450548 0.0717532)
(14.2446 0.575886 0.0900679)
(14.3586 0.614656 0.094854)
(14.4468 0.552859 0.0841798)
(14.4804 0.42101 0.0635615)
(14.4561 0.264594 0.0395134)
(14.3919 0.122582 0.0182042)
(14.3105 0.00985148 0.00147694)
(14.2272 -0.0717898 -0.0105863)
(14.1502 -0.126269 -0.0186382)
(14.0832 -0.159389 -0.0235769)
(14.0271 -0.176692 -0.0262178)
(13.9813 -0.182739 -0.0272197)
(13.9448 -0.181044 -0.0270848)
(13.9163 -0.174217 -0.026187)
(13.8948 -0.164204 -0.0248062)
(13.8789 -0.152447 -0.0231529)
(13.8677 -0.140029 -0.0213885)
(13.8603 -0.127748 -0.0196318)
(13.8557 -0.116062 -0.0179505)
(13.8533 -0.105232 -0.0163853)
(13.8526 -0.0953898 -0.0149587)
(13.8532 -0.086574 -0.0136803)
(13.8548 -0.0787688 -0.0125509)
(13.8572 -0.0719298 -0.0115712)
(13.8605 -0.065921 -0.0107132)
(13.8641 -0.0606102 -0.0100167)
(13.871 -0.0546425 -0.0090287)
(14.0061 0.0648393 0.0108255)
(14.0497 0.208755 0.0325104)
(14.1187 0.350262 0.0524737)
(14.21 0.455308 0.0668495)
(14.3082 0.495775 0.072043)
(14.3895 0.462307 0.0668165)
(14.4337 0.373648 0.0541829)
(14.4357 0.259952 0.0381746)
(14.4044 0.148849 0.0227217)
(14.3538 0.05437 0.00957499)
(14.2951 -0.0188759 -0.000705718)
(14.2358 -0.0715379 -0.00821894)
(14.1802 -0.106651 -0.0133714)
(14.1304 -0.127935 -0.0166469)
(14.0871 -0.138858 -0.018496)
(14.0503 -0.142283 -0.0192897)
(14.0195 -0.140468 -0.0193252)
(13.9942 -0.135161 -0.0188369)
(13.9738 -0.127695 -0.0180081)
(13.9575 -0.119082 -0.0169818)
(13.9447 -0.110076 -0.0158674)
(13.9348 -0.10117 -0.014738)
(13.9272 -0.0926825 -0.0136432)
(13.9216 -0.0848068 -0.0126158)
(13.9176 -0.0776502 -0.0116765)
(13.9148 -0.0712653 -0.0108374)
(13.9132 -0.0656823 -0.0101087)
(13.9127 -0.060849 -0.00948212)
(13.9131 -0.0567648 -0.00898856)
(13.9162 -0.0519848 -0.00828762)
(14.0031 0.0441288 0.00759689)
(14.0381 0.153569 0.0240127)
(14.0978 0.267258 0.0398836)
(14.1788 0.354179 0.0518189)
(14.2678 0.393233 0.057172)
(14.3468 0.377801 0.0550716)
(14.3998 0.319452 0.0472562)
(14.4208 0.238198 0.0363262)
(14.4135 0.153585 0.0249102)
(14.3864 0.0774785 0.0145021)
(14.3477 0.0152346 0.00579937)
(14.3037 -0.0320416 -0.00102202)
(14.2589 -0.0655974 -0.00608175)
(14.216 -0.0877322 -0.00963891)
(14.1764 -0.100908 -0.0119811)
(14.1409 -0.107337 -0.0133725)
(14.1095 -0.108864 -0.0140424)
(14.0823 -0.10697 -0.0141822)
(14.059 -0.102815 -0.0139482)
(14.0392 -0.097294 -0.0134663)
(14.0226 -0.091082 -0.012836)
(14.0087 -0.0846538 -0.0121302)
(13.9971 -0.0783331 -0.0114021)
(13.9875 -0.0723384 -0.01069)
(13.9796 -0.0668132 -0.0100212)
(13.9732 -0.0618554 -0.00941565)
(13.9681 -0.0575568 -0.00888919)
(13.9642 -0.0539399 -0.00845003)
(13.9616 -0.0511919 -0.00812035)
(13.9609 -0.0478339 -0.00767033)
(13.9998 0.0281133 0.00538387)
(14.0265 0.108755 0.0184691)
(14.0789 0.196719 0.0318156)
(14.1527 0.265606 0.0422428)
(14.2369 0.300302 0.0476599)
(14.3161 0.296032 0.0474326)
(14.3767 0.259611 0.0426281)
(14.4122 0.203869 0.0349846)
(14.4231 0.142252 0.0263426)
(14.4145 0.0840365 0.0179419)
(14.3921 0.0342429 0.0104863)
(14.3614 -0.00527038 0.00428903)
(14.3265 -0.0346824 -0.000604644)
(14.2904 -0.0552303 -0.00429825)
(14.255 -0.0685343 -0.00695919)
(14.2216 -0.0761957 -0.00876866)
(14.1907 -0.0796255 -0.00989955)
(14.1626 -0.08 -0.0105063)
(14.1376 -0.078264 -0.0107216)
(14.1155 -0.0751589 -0.0106567)
(14.096 -0.0712536 -0.0104023)
(14.0791 -0.0669634 -0.0100293)
(14.0643 -0.0625841 -0.00959224)
(14.0515 -0.058327 -0.00913259)
(14.0405 -0.0543449 -0.00868181)
(14.0309 -0.0507574 -0.00826501)
(14.0227 -0.0477028 -0.00790084)
(14.0157 -0.045257 -0.00761127)
(14.0103 -0.0438562 -0.00740833)
(14.0057 -0.0421388 -0.00717678)
(13.997 0.0159743 0.00371454)
(14.0169 0.0720853 0.0149406)
(14.0639 0.13492 0.0269139)
(14.133 0.18509 0.0364926)
(14.2145 0.212975 0.042029)
(14.2951 0.215058 0.0430531)
(14.3626 0.194715 0.0402374)
(14.41 0.159545 0.0347834)
(14.4357 0.118162 0.028042)
(14.4423 0.0771715 0.0210497)
(14.434 0.0406608 0.0144869)
(14.4149 0.0105552 0.00873527)
(14.3891 -0.0127463 0.00394785)
(14.3595 -0.0297649 0.000128268)
(14.3284 -0.0414466 -0.00280274)
(14.2974 -0.0488385 -0.00496191)
(14.2676 -0.0529225 -0.00647714)
(14.2395 -0.0545497 -0.0074728)
(14.2135 -0.0544221 -0.00806233)
(14.1898 -0.0531009 -0.00834511)
(14.1683 -0.051023 -0.00840544)
(14.149 -0.0485166 -0.00831223)
(14.1317 -0.0458217 -0.00812062)
(14.1163 -0.043118 -0.0078746)
(14.1025 -0.040543 -0.00760824)
(14.0902 -0.0382147 -0.007351)
(14.0793 -0.0362956 -0.00712179)
(14.0693 -0.0348792 -0.0069535)
(14.0612 -0.0346742 -0.00684335)
(14.0519 -0.0347283 -0.00680101)
(13.9961 0.00631823 0.00216201)
(14.0108 0.0415134 0.0130053)
(14.0533 0.0791603 0.0244064)
(14.1184 0.110131 0.0336645)
(14.1978 0.129262 0.039558)
(14.2803 0.133962 0.0416668)
(14.3545 0.125122 0.0403543)
(14.413 0.106537 0.0364713)
(14.4524 0.0829317 0.0310508)
(14.4732 0.0583278 0.0249953)
(14.4779 0.0355078 0.0189745)
(14.4701 0.0160151 0.0134243)
(14.4533 0.000407137 0.00858026)
(14.4305 -0.0114101 0.00453016)
(14.4042 -0.0198786 0.00126389)
(14.3762 -0.0255734 -0.00128383)
(14.348 -0.0290782 -0.00320477)
(14.3204 -0.0309208 -0.00459941)
(14.2941 -0.0315476 -0.00556632)
(14.2693 -0.0313217 -0.00619623)
(14.2463 -0.0305278 -0.00656909)
(14.2251 -0.029385 -0.00675308)
(14.2057 -0.0280531 -0.00680433)
(14.188 -0.0266599 -0.00676962)
(14.1717 -0.0252995 -0.00668517)
(14.1569 -0.0240627 -0.00658449)
(14.1433 -0.0231074 -0.00648622)
(14.1303 -0.0224484 -0.00643054)
(14.1197 -0.0230401 -0.0063882)
(14.104 -0.0247858 -0.00650864)
(13.9983 0.000615852 0.000986124)
(14.0093 0.0161828 0.0119776)
(14.0453 0.0333854 0.0234272)
(14.1042 0.0491292 0.0330701)
(14.1798 0.0608604 0.0399455)
(14.263 0.0667882 0.0435671)
(14.3442 0.066412 0.0439872)
(14.4148 0.060673 0.041723)
(14.4698 0.0513636 0.0375538)
(14.5074 0.0403496 0.032277)
(14.5285 0.0291619 0.0265708)
(14.5352 0.0188507 0.0209451)
(14.5304 0.00999418 0.0157374)
(14.5171 0.00280062 0.0111351)
(14.4979 -0.00276164 0.00721434)
(14.4749 -0.00686299 0.00397521)
(14.4499 -0.00973584 0.00137057)
(14.424 -0.011623 -0.000672048)
(14.3982 -0.0127489 -0.00223531)
(14.3732 -0.0133076 -0.00340266)
(14.3491 -0.0134584 -0.00425214)
(14.3264 -0.0133287 -0.00485367)
(14.305 -0.0130162 -0.00526728)
(14.285 -0.0125973 -0.00554469)
(14.2663 -0.0121344 -0.00572734)
(14.2487 -0.0116714 -0.00585447)
(14.2324 -0.0113149 -0.0059463)
(14.2158 -0.0110402 -0.00605567)
(14.2032 -0.0112922 -0.006106)
(14.1772 -0.0129956 -0.00636069)
(13.9145 0.0601305 0.30481)
(13.5022 0.203816 1.03466)
(12.6304 0.221443 2.05792)
(10.7673 0.255663 4.51386)
(1.5572 -0.0184676 -1.28007)
(7.26941 -0.140584 -2.65679)
(8.54989 -0.101933 -1.80771)
(9.5069 -0.0733238 -1.27026)
(10.2876 -0.0532163 -0.915671)
(10.9233 -0.039163 -0.672777)
(11.4372 -0.0292693 -0.502856)
(11.8509 -0.0222161 -0.381879)
(12.1836 -0.0170746 -0.293544)
(12.4508 -0.0131868 -0.226784)
(12.7106 -0.0192892 -0.177448)
(12.9433 -0.0283416 -0.144233)
(13.0622 -0.0233484 -0.118382)
(13.1605 -0.019354 -0.0980646)
(13.2437 -0.0161997 -0.0820278)
(13.3147 -0.0136926 -0.0693008)
(13.3756 -0.0116717 -0.0590561)
(13.4282 -0.0100218 -0.0506927)
(13.4738 -0.00866096 -0.0437631)
(13.514 -0.00747419 -0.0378102)
(13.5467 -0.00656823 -0.0326849)