/*--------------------------------*- C++ -*----------------------------------*\
  =========                 |
  \\      /  F ield         | OpenFOAM: The Open Source CFD Toolbox
   \\    /   O peration     | Website:  https://openfoam.org
    \\  /    A nd           | Version:  7
     \\/     M anipulation  |
\*---------------------------------------------------------------------------*/
FoamFile
{
    version     2.0;
    format      ascii;
    class       volScalarField;
    location    "400";
    object      k;
}
// * * * * * * * * * * * * * * * * * * * * * * * * * * * * * * * * * * * * * //

dimensions      [0 2 -2 0 0 0 0];

internalField   nonuniform List<scalar> 
27370
(
348.946
348.705
350.048
309.662
17.824
34.7842
50.6647
65.3495
76.9442
84.9532
89.8699
92.425
93.2651
92.9001
91.4558
89.3252
86.9223
84.3553
81.7018
79.0165
76.3385
73.6973
71.1214
68.6751
66.6689
348.686
347.41
348.329
324.556
21.4603
46.9278
65.1811
77.6996
86.1312
91.4704
94.448
95.658
95.5759
94.7854
93.1065
90.5513
87.8362
85.0346
82.2013
79.3769
76.5904
73.8642
71.2215
68.7224
66.6775
348.21
345.454
344.8
335.398
2.50181
57.7302
84.0846
96.0393
101.593
103.968
104.548
103.983
102.617
100.672
98.5684
95.9174
92.6686
89.4246
86.2155
83.0659
79.9944
77.014
74.135
71.3713
68.7761
66.6595
347.638
343.225
338.309
332.284
298.641
20.6815
118.747
128.731
130.271
128.918
126.101
122.561
118.713
114.766
110.813
106.894
103.159
99.1716
95.1481
91.2914
87.5982
84.0656
80.6905
77.4689
74.3977
71.4806
68.7622
66.5509
347.066
341.126
334.433
328.226
311.828
279.85
232.665
211.527
193.29
178.467
166.342
156.051
147.005
138.881
131.505
124.766
118.577
112.869
107.57
102.212
97.4699
93.026
88.8576
84.9416
81.2572
77.7863
74.5149
71.4364
68.5859
66.2679
346.555
339.35
331.226
320.656
306.053
290.107
265.102
239.027
218.874
201.067
185.54
171.978
160.042
149.45
139.982
131.471
123.782
116.809
110.476
104.603
99.2345
94.2863
89.7059
85.4527
81.4935
77.7987
74.345
71.1181
68.1435
65.7167
346.122
337.878
328.636
317.512
303.611
286.333
266.952
246.741
227.574
209.911
193.908
179.53
166.644
155.086
144.699
135.341
126.889
119.235
112.289
105.935
100.13
94.8085
89.9144
85.3997
81.2237
77.3509
73.7521
70.4068
67.33
64.8
345.762
336.615
326.381
314.555
300.679
284.593
266.91
248.521
230.467
213.348
197.462
182.907
169.669
157.673
146.819
136.999
128.107
120.047
112.727
106.058
99.9715
94.4059
89.3034
84.6138
80.2932
76.3026
72.6091
69.1876
66.0421
63.4195
345.457
335.441
324.167
311.428
297.097
281.234
264.264
246.793
229.514
212.929
197.342
182.899
169.635
157.522
146.501
136.492
127.405
119.154
111.656
104.829
98.6052
92.9205
87.7178
82.9463
78.561
74.5213
70.7925
67.3463
64.1752
61.474
345.19
334.21
321.659
307.662
292.419
276.168
259.274
242.186
225.376
209.226
193.989
179.804
166.713
154.707
143.745
133.765
124.688
116.436
108.932
102.102
95.877
90.1961
85.0023
80.2456
75.881
71.8676
68.1703
64.7586
61.6156
58.853
344.944
332.713
318.369
302.563
285.893
268.774
251.54
234.506
217.979
202.21
187.372
173.567
160.815
149.106
138.404
128.651
119.774
111.701
104.358
97.6759
91.5891
86.0379
80.9674
76.3285
72.0774
68.1736
64.5828
61.2727
58.2256
55.4232
344.702
330.553
313.401
294.906
276.196
257.81
239.995
222.887
206.617
191.291
176.983
163.727
151.514
140.319
130.096
120.783
112.311
104.609
97.607
91.2391
85.4428
80.1612
75.3414
70.9365
66.9045
63.2058
59.8093
56.6777
53.8151
51.0037
344.434
326.755
304.748
282.204
260.796
240.933
222.569
205.544
189.761
175.144
161.656
149.253
137.887
127.506
118.049
109.449
101.637
94.5443
88.1042
82.2535
76.9341
72.0925
67.6793
63.6505
59.9675
56.5916
53.4996
50.6369
48.0798
45.3118
343.977
318.197
287.102
258.753
234.369
213.44
195.165
178.927
164.322
151.066
139.004
128.02
118.024
108.938
100.689
93.2093
86.4301
80.2874
74.7203
69.6714
65.0882
60.9231
57.1319
53.6755
50.521
47.6286
44.997
42.5186
40.4391
37.8212
341.91
291.587
243.968
209.576
184.12
164.494
148.512
134.997
123.236
112.795
103.432
94.9924
87.3736
80.4761
74.2369
68.5979
63.5035
58.9011
54.7412
50.9781
47.5694
44.4785
41.6695
39.1126
36.7861
34.6409
32.7358
30.8265
29.4773
27.2724
317.06
174.861
118.147
91.1382
75.6272
65.5163
58.1275
52.2838
47.4098
43.1966
39.4814
36.1689
33.1993
30.5382
28.1425
25.9818
24.0322
22.2724
20.6833
19.2464
17.9473
16.7671
15.7024
14.7196
13.8539
13.0063
12.3338
11.548
11.0609
10.2175
348.686
347.413
348.338
324.455
20.7918
46.4953
64.9782
77.6092
86.0892
91.4496
94.4367
95.6515
95.5719
94.7825
93.104
90.5494
87.8348
85.0334
82.2004
79.3762
76.5898
73.8637
71.221
68.722
66.6771
348.444
346.36
346.74
330.72
31.2918
61.2279
78.2184
88.0443
93.8425
97.0648
98.4756
98.5654
97.6846
96.5113
94.6009
91.6771
88.6813
85.6645
82.6648
79.7109
76.8229
74.0168
71.3109
68.7618
66.6798
348.005
344.658
343.542
333.589
104.623
17.1412
78.9696
97.7875
105.695
108.736
109.33
108.584
107.013
104.892
102.381
99.9948
97.1653
93.62
90.1456
86.7561
83.4647
80.2811
77.2117
74.2619
71.4418
68.8015
66.651
347.479
342.632
337.197
331.663
306.461
92.4612
60.1205
138.897
140.638
138.345
134.765
130.522
125.982
121.386
116.857
112.446
108.165
104.252
100.14
95.8958
91.8638
88.0299
84.384
80.9177
77.6224
74.4917
71.5266
68.7693
66.5281
346.95
340.726
333.754
327.597
312.052
283.466
243.747
220.084
199.879
183.766
170.611
159.5
149.808
141.169
133.373
126.286
119.808
113.859
108.36
102.917
98.0224
93.4523
89.1794
85.1771
81.4217
77.8926
74.5734
71.4556
68.5728
66.2293
346.473
339.082
330.774
320.144
305.814
290.652
266.827
241.42
221.406
203.52
187.799
173.994
161.806
150.971
141.28
132.565
124.695
117.562
111.087
105.093
99.6201
94.5835
89.928
85.6117
81.5991
77.8597
74.3688
71.111
68.1104
65.6624
346.066
337.697
328.336
317.162
303.356
286.415
267.473
247.664
228.715
211.131
195.114
180.665
167.679
156.008
145.505
136.035
127.477
119.725
112.69
106.257
100.382
95
90.053
85.4927
81.2777
77.3717
73.7449
70.376
67.279
64.7316
345.723
336.491
326.175
314.305
300.463
284.521
267.047
248.874
230.98
213.951
198.099
183.536
170.264
158.218
147.305
137.422
128.469
120.349
112.974
106.253
100.12
94.5137
89.3747
84.6531
80.3048
76.2902
72.5761
69.1372
65.9763
63.3397
345.43
335.353
324.019
311.24
296.912
281.111
264.243
246.892
229.715
213.201
197.653
183.223
169.953
157.821
146.772
136.729
127.608
119.322
111.789
104.931
98.6767
92.9648
87.7376
82.9442
78.5397
74.4831
70.7397
67.281
64.0987
61.3864
345.172
334.147
321.549
307.515
292.258
276.027
259.182
242.159
225.412
209.312
194.108
179.941
166.856
154.846
143.873
133.877
124.782
116.51
108.987
102.137
95.893
90.1947
84.9849
80.2138
75.8363
71.8114
68.1041
64.6837
61.5329
58.7616
344.931
332.667
318.285
302.443
285.75
268.629
251.414
234.413
217.923
202.188
187.376
173.589
160.847
149.142
138.439
128.68
119.795
111.712
104.359
97.6657
91.5679
86.0063
80.9259
76.2779
72.0185
68.1072
64.5098
61.1939
58.1418
55.3326
344.694
330.52
313.335
294.805
276.066
257.666
239.852
222.759
206.51
191.207
176.92
163.68
151.479
140.292
130.073
120.761
112.287
104.581
97.5755
91.2023
85.4005
80.1131
75.2877
70.8774
66.8403
63.1371
59.7364
56.601
53.7353
50.9187
344.429
326.731
304.696
282.118
260.677
240.793
222.419
205.398
189.627
175.027
161.556
149.168
137.815
127.445
117.995
109.4
101.591
94.499
88.0584
82.2062
76.8847
72.0405
67.6245
63.5928
59.907
56.5283
53.4337
50.5685
48.0099
45.2376
343.974
318.181
287.06
258.678
234.26
213.306
195.017
178.779
164.181
150.938
138.892
127.923
117.941
108.866
100.628
93.1547
86.3807
80.2414
74.6761
69.628
65.0447
60.8789
57.0865
53.6286
50.4725
47.5784
44.9452
42.4647
40.3851
37.7631
341.909
291.576
243.934
209.511
184.024
164.375
148.381
134.864
123.11
112.68
103.332
94.9072
87.3018
80.4168
74.1879
68.5569
63.4686
58.8704
54.7132
50.9517
47.5436
44.4527
41.6432
39.0854
36.7579
34.6113
32.7054
30.7936
29.4456
27.2361
317.06
174.856
118.127
91.1044
75.5796
65.4593
58.0654
52.2217
47.3515
43.1446
39.4369
36.1321
33.1694
30.5139
28.1229
25.9662
24.0197
22.2622
20.6747
19.2389
17.9403
16.7604
15.6957
14.7126
13.8467
12.9982
12.3262
11.5381
11.0533
10.207
348.212
345.461
344.817
335.455
3.36923
57.522
83.7314
95.8041
101.458
103.891
104.503
103.955
102.599
100.66
98.5602
95.9111
92.6637
89.4208
86.2124
83.0634
79.9924
77.0123
74.1335
71.37
68.775
66.6584
348.006
344.661
343.551
333.584
95.1981
15.5646
78.8275
97.6191
105.575
108.662
109.286
108.557
106.996
104.881
102.374
99.9896
97.1614
93.617
90.1432
86.7542
83.4631
80.2797
77.2106
74.261
71.4409
68.8008
66.6503
347.642
343.274
341.03
333.004
292.478
108.767
122.559
125.855
125.596
123.557
120.604
117.209
113.615
109.937
106.231
102.898
99.3068
95.2615
91.3919
87.6888
84.1477
80.765
77.5366
74.4595
71.5372
68.8147
66.6014
347.194
341.601
335.323
329.686
311.066
263.351
197.994
182.992
173.766
163.573
154.811
147.111
140.053
133.469
127.308
121.544
116.145
111.072
106.491
101.801
97.186
92.851
88.7702
84.9238
81.2946
77.867
74.6292
71.5771
68.7488
66.4521
346.741
340.008
332.451
322.307
311.71
288.431
259.211
232.811
211.178
193.426
178.695
166.2
155.346
145.742
137.141
129.377
122.326
115.893
109.988
104.132
98.9734
94.1817
89.7238
85.5677
81.6852
78.0513
74.6457
71.4569
68.5151
66.124
346.325
338.593
329.941
319.25
305.147
286.957
266.186
245.109
225.371
207.474
191.52
177.369
164.791
153.566
143.504
134.448
126.268
118.858
112.136
105.931
100.275
95.0822
90.2932
85.8635
81.7553
77.9355
74.3775
71.0638
68.0159
65.5282
345.962
337.363
327.777
316.507
302.823
286.427
268.109
249.074
230.533
213.125
197.12
182.576
169.435
157.58
146.883
137.222
128.481
120.559
113.367
106.796
100.798
95.3074
90.266
85.6241
81.3392
77.3737
73.6965
70.285
67.1514
64.5715
345.651
336.257
325.784
313.823
300.021
284.311
267.173
249.384
231.776
214.92
199.141
184.58
171.257
159.13
148.118
138.13
129.07
120.846
113.373
106.562
100.348
94.6682
89.4644
84.6859
80.288
76.2307
72.4801
69.0098
65.8216
63.1589
345.38
335.186
323.734
310.87
296.534
280.827
264.127
246.984
229.986
213.602
198.13
183.731
170.457
158.295
147.201
137.103
127.922
119.575
111.984
105.069
98.7625
93.0029
87.7326
82.9008
78.4624
74.3762
70.6072
67.1263
63.9244
61.1914
345.137
334.026
321.333
307.219
291.924
275.718
258.95
242.035
225.398
209.388
194.247
180.117
167.047
155.033
144.044
134.023
124.897
116.593
109.035
102.152
95.8768
90.1488
84.9117
80.1158
75.7161
71.6717
67.9472
64.5119
61.3479
58.5605
344.907
332.577
318.117
302.198
285.451
268.314
251.123
234.175
217.748
202.073
187.31
173.558
160.838
149.143
138.44
128.674
119.778
111.68
104.31
97.5993
91.484
85.9054
80.8089
76.146
71.873
67.9495
64.3413
61.0159
57.9556
55.1342
344.677
330.454
313.202
294.597
275.795
257.357
239.535
222.461
206.246
190.982
176.733
163.525
151.349
140.179
129.97
120.663
112.189
104.48
97.4689
91.0887
85.279
79.9835
75.1498
70.7315
66.6869
62.9766
59.5697
56.4286
53.5586
50.733
344.418
326.684
304.59
281.939
260.43
240.494
222.096
205.074
189.32
174.747
161.307
148.948
137.622
127.273
117.84
109.257
101.455
94.3676
87.9288
82.0765
76.7534
71.9067
67.4875
63.4523
59.7629
56.3806
53.2828
50.4142
47.854
45.0751
343.969
318.149
286.975
258.524
234.036
213.027
194.705
178.457
163.869
150.647
138.629
127.688
117.733
108.683
100.464
93.0072
86.2453
80.1147
74.5555
69.5111
64.9297
60.7645
56.9718
53.5128
50.3553
47.4594
44.8247
42.3418
40.2621
37.6352
341.907
291.557
243.867
209.383
183.833
164.135
148.11
134.585
122.839
112.429
103.106
94.7087
87.1289
80.2682
74.06
68.446
63.3707
58.7824
54.6322
50.8754
47.4703
44.3809
41.5719
39.0137
36.6856
34.5375
32.6308
30.7166
29.3689
27.1558
317.06
174.847
118.092
91.042
75.4899
65.3493
57.9432
52.097
47.2319
43.035
39.3402
36.049
33.0994
30.4545
28.073
25.9243
23.9842
22.2317
20.6478
19.2146
17.9178
16.7389
15.6748
14.6917
13.8259
12.9767
12.3046
11.5154
11.0303
10.183
347.64
343.233
338.33
332.32
298.386
20.3817
118.452
128.514
130.071
128.759
125.988
122.484
118.662
114.731
110.789
106.876
103.146
99.1616
95.14
91.2849
87.5928
84.0611
80.6868
77.4657
74.3949
71.4781
68.7601
66.5489
347.48
342.638
337.211
331.689
306.414
93.9289
59.22
138.601
140.465
138.205
134.653
130.44
125.925
121.346
116.83
112.427
108.151
104.241
100.132
95.8895
91.8587
88.0256
84.3805
80.9146
77.6198
74.4894
71.5246
68.7676
66.5265
347.194
341.603
335.329
329.697
311.074
262.965
197.888
182.873
173.681
163.51
154.759
147.068
140.02
133.444
127.29
121.531
116.135
111.064
106.486
101.797
97.1826
92.8482
88.7679
84.9218
81.2929
77.8656
74.6279
71.576
68.7478
66.4512
346.842
340.363
333.096
323.12
312.024
286.466
252.553
223.887
202.822
186.024
172.437
161.07
151.214
142.454
134.558
127.382
120.823
114.797
109.285
103.742
98.6919
93.9937
89.6123
85.5187
81.6866
78.0931
74.7199
71.5574
68.6378
66.2673
346.477
339.12
330.891
320.503
306.159
291.172
267.369
243.474
222.085
203.57
187.671
173.928
161.904
151.259
141.748
133.194
125.461
118.441
112.034
105.545
100.068
95.0065
90.3206
85.9736
81.9321
78.1663
74.6516
71.3727
68.3552
65.9007
346.134
337.967
328.873
317.988
304.292
287.32
268.159
248.379
229.32
211.648
195.594
181.149
168.188
156.55
146.078
136.633
128.094
120.357
113.34
106.88
101.003
95.6172
90.6626
86.0914
81.8633
77.9427
74.3003
70.9159
67.8077
65.2669
345.825
336.919
327.029
315.594
302.044
286.195
268.644
250.38
232.365
215.234
199.31
184.707
171.417
159.366
148.452
138.569
129.614
121.49
114.11
107.37
101.221
95.597
90.4388
85.6957
81.3238
77.2842
73.5442
70.0796
66.8997
64.2763
345.553
335.938
325.24
313.131
299.345
283.871
267.121
249.763
232.505
215.881
200.219
185.684
172.322
160.111
148.991
138.882
129.697
121.351
113.761
106.841
100.529
94.7597
89.4768
84.6287
80.1701
76.0604
72.2651
68.7566
65.5346
62.8369
345.311
334.952
323.324
310.322
295.941
280.316
263.801
246.892
230.114
213.897
198.531
184.183
170.918
158.731
147.59
137.432
128.184
119.768
112.107
105.127
98.7587
92.9425
87.621
82.7437
78.265
74.1437
70.3445
66.8377
63.6124
60.8521
345.087
333.85
321.014
306.768
291.394
275.187
258.49
241.694
225.186
209.288
194.231
180.155
167.113
155.104
144.103
134.059
124.903
116.564
108.97
102.051
95.74
89.9789
84.7112
79.8876
75.4631
71.3969
67.6535
64.2019
61.0233
58.2151
344.872
332.445
317.862
301.817
284.97
267.784
250.598
233.698
217.341
201.738
187.039
173.336
160.651
148.976
138.283
128.516
119.613
111.503
104.119
97.392
91.26
85.6649
80.5527
75.8751
71.5887
67.6533
64.0348
60.7004
57.6324
54.7957
344.654
330.354
312.996
294.27
275.356
256.84
238.984
221.915
205.733
190.514
176.312
163.148
151.01
139.869
129.682
120.388
111.923
104.217
97.2061
90.8236
85.0099
79.7093
74.8701
70.4462
66.3963
62.681
59.2697
56.1246
53.2524
50.416
344.403
326.611
304.424
281.657
260.031
240.002
221.547
204.507
188.763
174.219
160.817
148.499
137.212
126.897
117.492
108.932
101.148
94.0736
87.6442
81.7983
76.4792
71.6348
67.2166
63.1816
59.4918
56.1089
53.0105
50.1408
47.5819
44.796
343.961
318.1
286.844
258.282
233.679
212.574
194.188
177.913
163.325
150.125
138.141
127.24
117.324
108.31
100.124
92.6943
85.9549
79.8424
74.2973
69.2637
64.6905
60.5312
56.7427
53.2868
50.1313
47.2366
44.6033
42.12
40.0436
37.4121
341.904
291.527
243.765
209.187
183.538
163.757
147.677
134.129
122.384
111.994
102.704
94.3427
86.7991
79.9742
73.7979
68.2111
63.1583
58.588
54.4519
50.706
47.309
44.2255
41.4208
38.8655
36.5395
34.3923
32.4873
30.5715
29.2277
27.01
317.059
174.834
118.043
90.9516
75.3576
65.1843
57.7563
51.9017
47.0393
42.8533
39.1744
35.9012
32.9694
30.3398
27.9724
25.836
23.9063
22.1622
20.5851
19.157
17.8641
16.688
15.6261
14.6443
13.7798
12.9303
12.2602
11.4677
10.9897
10.1335
347.067
341.132
334.447
328.251
311.854
279.726
232.142
211.257
193.122
178.338
166.233
155.957
146.929
138.822
131.46
124.731
118.55
112.848
107.553
102.199
97.4591
93.017
88.85
84.9352
81.2517
77.7815
74.5107
71.4327
68.5827
66.2649
346.951
340.731
333.765
327.618
312.082
284.202
243.434
219.708
199.745
183.667
170.526
159.427
149.747
141.12
133.335
126.257
119.785
113.841
108.345
102.906
98.0132
93.4445
89.1729
85.1715
81.4169
77.8884
74.5697
71.4524
68.5699
66.2266
346.741
340.011
332.458
322.318
311.728
288.398
259.144
232.751
211.123
193.376
178.649
166.158
155.31
145.713
137.117
129.358
122.31
115.881
109.978
104.124
98.9669
94.1761
89.719
85.5636
81.6816
78.0482
74.643
71.4545
68.5129
66.122
346.478
339.121
330.893
320.507
306.164
291.169
267.356
243.46
222.07
203.554
187.655
173.913
161.89
151.247
141.738
133.186
125.453
118.435
112.029
105.541
100.065
95.0037
90.3181
85.9714
81.9302
78.1647
74.6502
71.3714
68.354
65.8996
346.197
338.187
329.272
318.535
304.904
292.038
271.712
250.434
230.193
211.791
195.396
180.867
167.969
156.467
146.16
136.885
128.508
120.919
114.024
106.814
101.022
95.686
90.7674
86.2246
82.0192
78.1167
74.4884
71.1152
68.0171
65.4903
345.924
337.277
327.694
316.528
303.086
287.038
269.199
250.616
232.346
215.058
199.068
184.468
171.226
159.246
148.413
138.612
129.735
121.684
114.38
107.669
101.57
95.989
90.8655
86.1497
81.7985
77.7742
74.0448
70.5876
67.416
64.8144
345.671
336.408
326.155
314.478
300.979
285.557
268.684
251.123
233.656
216.863
201.087
186.488
173.101
160.891
149.788
139.704
130.546
122.227
114.665
107.759
101.46
95.7031
90.4276
85.5825
81.1228
77.0084
73.2052
69.6872
66.4599
63.7868
345.44
335.555
324.574
312.244
298.404
283.095
266.68
249.72
232.814
216.444
200.932
186.458
173.088
160.818
149.608
139.393
130.095
121.635
113.934
106.912
100.504
94.6487
89.2887
84.3728
79.8552
75.6949
71.8564
68.3115
65.0562
62.3189
345.227
334.66
322.8
309.591
295.096
279.493
263.118
246.417
229.853
213.812
198.57
184.295
171.059
158.868
147.696
137.493
128.189
119.714
111.993
104.954
98.5308
92.6636
87.2957
82.377
77.862
73.7095
69.8835
66.3542
63.1081
60.3172
345.026
333.625
320.59
306.147
290.625
274.356
257.686
240.979
224.588
208.805
193.843
179.835
166.838
154.852
143.856
133.803
124.63
116.269
108.649
101.703
95.3659
89.5794
84.2882
79.4433
75
70.9174
67.1603
63.6972
60.5082
57.6775
344.828
332.27
317.514
301.279
284.263
266.966
249.736
232.852
216.548
201.014
186.385
172.742
160.107
148.47
137.801
128.051
119.155
111.048
103.662
96.9304
90.7924
85.1905
80.0713
75.3871
71.0948
67.1543
63.5316
60.1941
57.1241
54.2721
344.622
330.219
312.709
293.799
274.706
256.049
238.108
221.009
204.839
189.66
175.508
162.398
150.31
139.215
129.065
119.802
111.361
103.675
96.6775
90.3056
84.4998
79.2051
74.3705
69.9501
65.9031
62.1905
58.7819
55.6392
52.7712
49.9257
344.383
326.511
304.189
281.247
259.439
239.256
220.694
203.6
187.845
173.321
159.959
147.69
136.454
126.188
116.829
108.308
100.558
93.5125
87.1071
81.281
75.9784
71.1476
66.7408
62.7154
59.0339
55.6582
52.5665
49.702
47.1515
44.3613
343.949
318.031
286.656
257.933
233.157
211.9
193.404
177.068
162.459
149.273
137.323
126.468
116.603
107.641
99.5021
92.1159
85.4146
79.3351
73.8179
68.8079
64.2545
60.1118
56.3373
52.8931
49.7478
46.8616
44.2365
41.7582
39.6923
37.059
341.901
291.486
243.626
208.914
183.121
163.216
147.044
133.445
121.685
111.309
102.05
93.7315
86.2332
79.4557
73.3241
67.7774
62.7596
58.2192
54.1084
50.3834
47.0038
43.9346
41.1418
38.5962
36.2786
34.1376
32.24
30.3254
28.995
26.7682
317.059
174.817
117.98
90.8337
75.1816
64.9595
57.4957
51.6224
46.7559
42.578
38.9148
35.6615
32.7512
30.1412
27.7927
25.6736
23.759
22.028
20.4619
19.043
17.7576
16.5877
15.5308
14.5529
13.6921
12.8441
12.1811
11.3704
10.975
9.99209
346.556
339.355
331.236
320.672
306.067
290.09
265.04
238.968
218.812
201.005
185.48
171.922
159.992
149.406
139.945
131.44
123.756
116.788
110.458
104.588
99.2215
94.2752
89.6963
85.4444
81.4862
77.7923
74.3394
71.1131
68.139
65.7126
346.474
339.086
330.783
320.158
305.828
290.649
266.772
241.381
221.359
203.471
187.751
173.948
161.764
150.935
141.248
132.539
124.673
117.543
111.071
105.079
99.6085
94.5735
89.9194
85.6041
81.5926
77.8539
74.3637
71.1065
68.1063
65.6586
346.326
338.596
329.946
319.258
305.156
286.953
266.17
245.086
225.343
207.443
191.488
177.338
164.762
153.54
143.481
134.428
126.251
118.844
112.123
105.92
100.266
95.0743
90.2862
85.8575
81.75
77.9308
74.3734
71.0601
68.0126
65.5251
346.134
337.968
328.876
317.993
304.296
287.318
268.152
248.367
229.306
211.632
195.576
181.132
168.172
156.534
146.064
136.621
128.084
120.348
113.332
106.873
100.997
95.6118
90.6579
86.0873
81.8596
77.9394
74.2973
70.9133
67.8053
65.2646
345.924
337.278
327.695
316.529
303.087
287.038
269.196
250.612
232.341
215.052
199.061
184.461
171.219
159.239
148.407
138.607
129.73
121.68
114.376
107.665
101.567
95.9863
90.8632
86.1476
81.7967
77.7725
74.0433
70.5863
67.4148
64.8132
345.712
336.57
326.467
314.932
301.522
286.094
269.162
251.517
233.968
217.113
201.3
186.683
173.294
161.092
150.001
139.93
130.788
122.483
114.935
108.035
101.745
95.996
90.7261
85.8846
81.4267
77.3125
73.5082
69.9884
66.7607
64.0964
345.51
335.858
325.187
313.178
299.588
284.408
268.015
251.005
234.019
217.565
201.98
187.448
174.034
161.734
150.503
140.271
130.959
122.487
114.776
107.74
101.319
95.4513
90.0783
85.1484
80.616
76.4401
72.5855
69.0246
65.7577
63.0335
345.318
335.123
323.794
311.154
297.145
281.872
265.667
249.007
232.399
216.272
200.926
186.543
173.205
160.921
149.664
139.382
130.007
121.465
113.682
106.583
100.104
94.1831
88.7645
83.7971
79.2353
75.0375
71.168
67.5972
64.3174
61.54
345.134
334.317
322.156
308.652
293.94
278.251
261.922
245.355
228.958
213.078
197.966
183.782
170.603
158.438
147.269
137.051
127.723
119.216
111.461
104.387
97.9305
92.0319
86.6357
81.6919
77.1554
72.985
69.1448
65.6041
62.3467
59.5259
344.955
333.349
320.049
305.32
289.552
273.122
256.394
239.714
223.399
207.713
192.846
178.921
165.989
154.051
143.088
133.055
123.893
115.535
107.915
100.964
94.6222
88.83
83.5333
78.6835
74.2365
70.1515
66.3933
62.9304
59.7413
56.8901
344.774
332.047
317.054
300.541
283.262
265.759
248.407
231.478
215.189
199.706
185.144
171.572
159.005
147.427
136.81
127.102
118.241
110.161
102.797
96.0844
89.9615
84.3725
79.2645
74.5904
70.3074
66.376
62.7623
59.4334
56.3726
53.5087
344.583
330.042
312.318
293.141
273.775
254.887
236.784
219.597
203.403
188.244
174.14
161.091
149.071
138.043
127.955
118.748
110.357
102.714
95.7551
89.4164
83.6396
78.3703
73.5582
69.158
65.1293
61.4335
58.0406
54.9121
52.0601
49.2104
344.357
326.376
303.862
280.667
258.589
238.166
219.425
202.222
186.42
171.899
158.572
146.359
135.19
124.994
115.702
107.245
99.5539
92.5607
86.2022
80.4177
75.1517
70.3534
65.9754
61.9757
58.3173
54.9622
51.8899
49.0418
46.5111
43.7237
343.934
317.937
286.396
257.441
232.413
210.929
192.258
175.812
161.15
147.96
136.041
125.238
115.437
106.543
98.4728
91.1517
84.5106
78.4855
73.017
68.0502
63.5349
59.4259
55.681
52.263
49.1412
46.2756
43.6699
41.2071
39.1603
36.5363
341.895
291.432
243.437
208.542
182.547
162.459
146.145
132.458
120.657
110.28
101.049
92.7757
85.3322
78.6153
72.5437
67.0539
62.0881
57.5944
53.5248
49.8359
46.4878
43.4461
40.6773
38.1524
35.8534
33.7279
31.8457
29.9434
28.6211
26.417
317.058
174.798
117.902
90.685
74.9545
64.6627
57.1441
51.2366
46.3549
42.1783
38.528
35.2951
32.4089
29.823
27.4988
25.4029
23.5098
21.798
20.2489
18.8448
17.5724
16.4135
15.3664
14.3965
13.5431
12.7021
12.0394
11.2562
10.7765
9.93563
346.123
337.882
328.643
317.522
303.619
286.328
266.933
246.71
227.536
209.869
193.865
179.488
166.604
155.049
144.666
135.312
126.864
119.213
112.27
105.918
100.115
94.7956
89.9031
85.3897
81.2148
77.343
73.745
70.4005
67.3243
64.7947
346.067
337.7
328.341
317.17
303.363
286.412
267.457
247.64
228.684
211.096
195.077
180.629
167.644
155.975
145.476
136.009
127.454
119.705
112.672
106.242
100.369
94.9882
90.0426
85.4835
81.2695
77.3644
73.7384
70.3701
67.2737
64.7267
345.963
337.365
327.781
316.513
302.828
286.424
268.098
249.057
230.511
213.1
197.092
182.549
169.408
157.555
146.86
137.201
128.462
120.543
113.353
106.783
100.787
95.2974
90.2572
85.6163
81.3322
77.3674
73.6909
70.2799
67.1468
64.5672
345.826
336.92
327.032
315.597
302.047
286.194
268.638
250.369
232.352
215.218
199.292
184.689
171.399
159.348
148.436
138.555
129.6
121.478
114.1
107.361
101.212
95.5895
90.432
85.6897
81.3184
77.2793
73.5398
70.0756
66.8961
64.2729
345.671
336.409
326.157
314.479
300.98
285.556
268.681
251.118
233.649
216.854
201.077
186.477
173.09
160.881
149.779
139.695
130.538
122.22
114.658
107.753
101.455
95.6981
90.4231
85.5785
81.1192
77.0051
73.2022
69.6845
66.4575
63.7845
345.51
335.858
325.188
313.179
299.589
284.408
268.013
251.003
234.016
217.562
201.976
187.443
174.03
161.73
150.499
140.267
130.956
122.484
114.773
107.737
101.316
95.449
90.0761
85.1464
80.6142
76.4385
72.5841
69.0233
65.7565
63.0323
345.349
335.275
324.115
311.658
297.804
282.634
266.479
249.829
233.205
217.048
201.667
187.25
173.88
161.568
150.285
139.98
130.584
122.022
114.222
107.105
100.609
94.6728
89.239
84.257
79.681
75.4694
71.5863
68.0028
64.7129
61.9406
345.191
334.643
322.881
309.812
295.482
280.072
263.907
247.409
231.012
215.087
199.906
185.641
172.378
160.132
148.883
138.591
129.193
120.62
112.804
105.672
99.1607
93.211
87.7665
82.7772
78.1978
73.9866
70.1077
66.5307
63.2427
60.4286
345.034
333.917
321.367
307.446
292.376
276.455
260.036
243.496
227.196
211.441
196.453
182.378
169.287
157.188
146.066
135.88
126.573
118.079
110.33
103.261
96.8064
90.9096
85.5151
80.5738
76.041
71.8757
68.042
64.509
61.2569
58.4103
344.876
333.013
319.358
304.222
288.071
271.348
254.445
237.699
221.401
205.78
191.003
177.172
164.331
152.475
141.583
131.611
122.5
114.186
106.603
99.6848
93.3709
87.6039
82.3304
77.5021
73.0755
69.0103
65.2713
61.8273
58.6552
55.7888
344.712
331.766
316.445
299.535
281.858
264.023
246.44
229.384
213.056
197.597
183.098
169.608
157.13
145.644
135.113
125.485
116.696
108.682
101.376
94.7156
88.6398
83.0934
78.0241
73.3856
69.1355
65.2346
61.6497
58.3478
55.3137
52.4446
344.536
329.811
311.785
292.222
272.455
253.213
234.847
217.497
201.229
186.065
172.005
159.028
147.096
136.164
126.172
117.057
108.751
101.188
94.301
88.0279
82.3106
77.0954
72.3323
67.9769
63.9891
60.331
56.973
53.8762
51.0579
48.2124
344.323
326.194
303.407
279.844
257.374
236.597
217.582
200.2
184.306
169.766
156.47
144.323
133.24
123.141
113.949
105.589
97.9897
91.0826
84.803
79.0906
73.8902
69.1511
64.827
60.876
57.2621
53.9474
50.9126
48.0971
45.6036
42.8285
343.915
317.808
286.027
256.741
231.354
209.541
190.611
173.992
159.237
146.024
134.131
123.389
113.669
104.867
96.8932
89.6667
83.1157
77.1747
71.7835
66.8871
62.4356
58.3841
54.6912
51.3199
48.2406
45.4128
42.8433
40.4092
38.3986
35.7924
341.888
291.357
243.177
208.026
181.748
161.401
144.882
131.057
119.181
108.786
99.5775
91.3554
83.9791
77.3397
71.3487
65.9378
61.0468
56.6223
52.6157
48.9838
45.6868
42.6908
39.963
37.4745
35.2089
33.1116
31.2587
29.3758
28.0819
25.8957
317.058
174.776
117.805
90.4944
74.6574
64.2679
56.6697
50.7079
45.7964
41.6122
37.9709
34.7584
31.8995
29.3432
27.0501
24.9851
23.1215
21.4372
19.9132
18.5317
17.2796
16.1385
15.1079
14.1517
13.3119
12.4809
11.8302
11.0538
10.5844
9.7513
345.762
336.618
326.385
314.56
300.682
284.589
266.898
248.501
230.44
213.317
197.428
182.872
169.635
157.641
146.789
136.972
128.082
120.024
112.707
106.04
99.9555
94.3917
89.2906
84.6024
80.283
76.2934
72.6008
69.1801
66.0352
63.4131
345.724
336.493
326.178
314.309
300.466
284.518
267.037
248.857
230.956
213.923
198.069
183.505
170.233
158.188
147.277
137.397
128.446
120.328
112.955
106.236
100.106
94.5004
89.3628
84.6424
80.2951
76.2815
72.5683
69.1301
65.9698
63.3336
345.651
336.259
325.787
313.826
300.023
284.309
267.165
249.371
231.758
214.898
199.117
184.555
171.232
159.106
148.095
138.109
129.05
120.828
113.357
106.548
100.335
94.6566
89.4539
84.6765
80.2795
76.223
72.4731
69.0035
65.8158
63.1534
345.554
335.939
325.242
313.133
299.347
283.87
267.116
249.754
232.493
215.865
200.202
185.666
172.304
160.093
148.974
138.866
129.682
121.337
113.748
106.83
100.518
94.7504
89.4683
84.621
80.1632
76.0541
72.2593
68.7514
65.5297
62.8323
345.44
335.556
324.575
312.245
298.405
283.094
266.677
249.714
232.806
216.434
200.921
186.446
173.075
160.806
149.597
139.382
130.085
121.625
113.925
106.903
100.496
94.6418
89.2825
84.3671
79.85
75.6901
71.8521
68.3075
65.0526
62.3155
345.318
335.124
323.794
311.155
297.146
281.872
265.665
249.004
232.395
216.267
200.92
186.537
173.198
160.914
149.657
139.375
130
121.459
113.676
106.578
100.099
94.1787
88.7605
83.7935
79.2319
75.0344
71.1651
67.5946
64.315
61.5377
345.191
334.643
322.881
309.812
295.482
280.071
263.906
247.408
231.01
215.084
199.903
185.638
172.375
160.129
148.88
138.588
129.19
120.618
112.801
105.669
99.1585
93.2089
87.7646
82.7755
78.1962
73.9851
70.1063
66.5294
63.2416
60.4275
345.061
334.096
321.779
308.112
293.266
277.511
261.195
244.704
228.411
212.636
197.611
183.489
170.347
158.198
147.025
136.791
127.438
118.901
111.112
104.004
97.5148
91.5847
86.1591
81.1887
76.6286
72.4376
68.5798
65.0243
61.7526
58.9083
344.927
333.441
320.373
305.865
290.249
273.914
257.244
240.605
224.318
208.645
193.775
179.828
166.862
154.879
143.859
133.765
124.537
116.113
108.427
101.413
95.0094
89.1588
83.8072
78.9061
74.4116
70.2831
66.4848
62.9858
59.7632
56.8981
344.787
332.597
318.454
302.741
286.024
268.838
251.615
234.696
218.344
202.755
188.063
174.345
161.629
149.899
139.129
129.271
120.265
112.047
104.551
97.7131
91.4722
85.7722
80.5603
75.7892
71.4159
67.4006
63.7087
60.3087
57.1777
54.3044
344.639
331.403
315.623
298.144
279.889
261.558
243.611
226.332
209.906
194.442
180.004
166.614
154.259
142.906
132.509
123.011
114.345
106.445
99.2453
92.6821
86.6958
81.2315
76.2378
71.6688
67.483
63.6417
60.1123
56.8616
53.8781
51.0139
344.477
329.501
311.043
290.923
270.577
250.825
232.071
214.47
198.076
182.885
168.869
155.983
144.173
133.376
123.525
114.55
106.378
98.9406
92.1712
86.0067
80.3892
75.2656
70.5867
66.3084
62.3916
58.7986
55.5013
52.4592
49.6983
46.869
344.28
325.941
302.755
278.66
255.626
234.347
214.943
197.304
181.272
166.694
153.432
141.371
130.406
120.442
111.392
103.174
95.7116
88.9343
82.776
77.1758
72.0786
67.4341
63.1965
59.3247
55.7832
52.5347
49.5616
46.7997
44.3663
41.6173
343.888
317.624
285.49
255.723
229.823
207.55
188.261
171.401