/*--------------------------------*- C++ -*----------------------------------*\
  =========                 |
  \\      /  F ield         | OpenFOAM: The Open Source CFD Toolbox
   \\    /   O peration     | Website:  https://openfoam.org
    \\  /    A nd           | Version:  7
     \\/     M anipulation  |
\*---------------------------------------------------------------------------*/
FoamFile
{
    version     2.0;
    format      ascii;
    class       volScalarField;
    location    "400";
    object      nut;
}
// * * * * * * * * * * * * * * * * * * * * * * * * * * * * * * * * * * * * * //

dimensions      [0 2 -1 0 0 0 0];

internalField   nonuniform List<scalar> 
27370
(
624.392
316.354
132.689
37.8259
5.92668
10.6215
16.9749
25.4268
35.073
44.9697
54.4372
63.0661
70.6536
78.0811
85.0476
88.6982
91.5463
93.7444
95.3759
96.5185
97.245
97.6227
97.7224
97.6583
98.1462
625.825
382.194
159.496
54.2034
4.60552
11.614
20.5841
30.3111
40.1887
49.7521
58.6481
66.6454
73.6321
80.8981
87.8398
90.9603
93.3981
95.2383
96.5607
97.4397
97.9433
98.1334
98.0758
97.8799
98.2606
627.49
513.378
231.384
87.1477
0.171287
8.57796
20.4856
32.1641
42.8735
52.4958
61.0519
68.5841
75.1254
80.7145
86.9009
92.9075
95.1108
96.7581
97.9201
98.6652
99.0559
99.1483
98.9929
98.6451
98.2052
98.3862
630.06
542.442
348.723
165.1
53.8699
0.145991
15.3473
29.2145
41.729
52.7662
62.2072
70.1345
76.7387
82.2212
86.7517
90.4615
94.9129
99.3188
100.317
100.927
101.204
101.199
100.956
100.513
99.9067
99.179
98.4172
98.3323
633.194
556.23
450.18
321.598
172.089
70.592
39.5131
52.7338
61.9978
70.7191
78.362
84.8047
90.0422
94.1684
97.3405
99.7274
101.479
102.721
103.547
105.878
105.571
105.057
104.376
103.556
102.622
101.595
100.494
99.3493
98.2299
97.8453
635.823
568.04
480.795
375.272
272.781
182.445
135.414
134.78
128.657
125.556
123.721
122.417
121.266
120.092
118.834
117.482
116.053
114.574
113.109
111.496
109.902
108.305
106.704
105.103
103.506
101.918
100.343
98.7937
97.3221
96.6355
637.123
574.685
499.61
415.595
333.32
266.484
220.442
190.187
172.861
161.044
152.486
145.858
140.368
135.632
131.428
127.621
124.129
120.899
117.907
115.073
112.409
109.898
107.518
105.254
103.093
101.025
99.0415
97.1469
95.3662
94.4034
636.424
574.079
504.451
432.501
364.036
305.546
260.315
226.95
203.405
186.07
172.721
161.859
153.037
145.551
139.073
133.378
128.308
123.756
119.638
115.872
112.412
109.218
106.256
103.498
100.918
98.4958
96.2136
94.0682
92.0523
90.862
632.909
564.132
493.762
427.334
367.61
316.538
275
242.24
216.935
197.157
181.424
168.519
157.598
148.492
140.659
133.827
127.803
122.443
117.64
113.302
109.36
105.761
102.459
99.415
96.5972
93.9788
91.5345
89.2596
87.1056
85.7531
625.107
541.625
465.368
400.891
347.266
302.894
266.522
236.976
213.128
193.769
177.908
164.78
153.406
143.796
135.582
128.407
122.087
116.478
111.467
106.961
102.885
99.1816
95.7992
92.6972
89.8398
87.1994
84.7442
82.4779
80.2989
78.8611
609.941
501.329
416.331
353.391
305.867
268.674
238.696
214.14
193.864
176.969
162.841
150.894
140.429
131.505
123.788
117.016
111.031
105.71
100.95
96.67
92.8014
89.2891
86.0853
83.1527
80.4548
77.97
75.6575
73.5445
71.4631
70.0238
580.256
435.323
344.256
286.661
247.477
218.698
196.103
177.654
162.243
149.1
137.948
128.135
119.653
112.251
105.744
99.987
94.8668
90.2902
86.1804
82.4732
79.1149
76.0613
73.2717
70.7179
68.3639
66.2027
64.1762
62.3565
60.4993
59.1462
518.326
334.87
250.654
205.972
178.387
159.259
144.461
132.42
122.283
113.322
105.569
98.7142
92.6299
87.2178
82.3883
78.065
74.1826
70.6849
67.5234
64.6566
62.0474
59.6671
57.4833
55.4831
53.6267
51.9343
50.3158
48.909
47.4035
46.2276
383.648
202.087
147.13
122.119
107.539
97.8438
90.0754
83.7964
78.3544
73.4545
69.0463
65.0569
61.4436
58.1592
55.1738
52.461
49.9952
47.7514
45.706
43.8382
42.1264
40.5581
39.1077
37.7813
36.5303
35.4106
34.2958
33.3734
32.3471
31.4428
151.873
75.0632
58.1092
50.4824
45.8328
42.7285
40.161
37.9306
35.9174
34.055
32.3262
30.7188
29.2364
27.8426
26.547
25.3509
24.2501
23.2381
22.3068
21.4497
20.657
19.9276
19.2441
18.6226
18.02
17.4952
16.9511
16.4946
16.0524
15.5106
12.4958
9.27986
7.6279
6.69954
6.10286
5.68027
5.35039
5.07432
4.83202
4.61232
4.40952
4.22049
4.04351
3.87808
3.72285
3.57709
3.44026
3.31191
3.19157
3.07872
2.97299
2.87358
2.78085
2.69243
2.61201
2.53101
2.46409
2.38673
2.3264
2.25092
625.828
382.107
159.396
54.3068
4.33826
11.3987
20.4566
30.2394
40.1472
49.7278
58.6325
66.6352
73.6253
80.8928
87.8343
90.956
93.3947
95.2356
96.5584
97.4378
97.9417
98.132
98.0746
97.8789
98.2597
626.908
445.001
188.575
64.5583
5.02541
14.3756
24.7953
35.1646
45.0649
54.2727
62.6335
70.048
76.4714
83.5775
90.4918
93.1331
95.163
96.6542
97.6793
98.3066
98.5979
98.6097
98.4022
98.0806
98.3585
628.536
536.662
261.743
104.009
1.26751
0.910132
12.87
25.4041
37.1396
47.6839
56.9772
65.0918
72.1218
78.1534
83.2588
89.3033
95.2917
97.0601
98.3366
99.1831
99.6604
99.8245
99.7253
99.4083
98.9243
98.3694
98.4558
631.059
546.757
400.507
189.822
78.7654
1.3274
1.8181
21.6975
35.3386
47.3572
57.8276
66.7134
74.113
80.2157
85.2243
89.3136
92.6209
96.9594
101.33
101.962
102.258
102.268
102.034
101.597
100.989
100.243
99.3968
98.534
98.3654
633.99
559.649
458.913
335.803
193.368
100.303
53.2159
64.5998
71.0152
78.1676
84.6429
90.1345
94.5797
98.0375
100.638
102.529
103.848
104.711
105.205
107.487
106.887
106.121
105.224
104.218
103.125
101.961
100.745
99.5
98.2953
97.839
636.379
570.37
486.28
385.903
287.757
196.791
148.46
146.952
138.019
133.143
129.95
127.6
125.604
123.736
121.9
120.061
118.217
116.383
114.607
112.729
110.908
109.114
107.343
105.596
103.875
102.178
100.509
98.8797
97.3384
96.5922
637.472
576.119
502.827
421.497
341.873
276.393
229.992
198.622
179.726
166.819
157.142
149.737
143.608
138.344
133.702
129.527
125.723
122.227
119.005
115.974
113.14
110.481
107.974
105.599
103.342
101.19
99.134
97.1767
95.341
94.3299
636.62
574.87
506.175
435.567
368.518
310.912
265.805
232.104
207.879
189.87
175.959
164.544
155.293
147.445
140.664
134.712
129.425
124.685
120.404
116.496
112.913
109.613
106.558
103.719
101.068
98.5836
96.2474
94.0547
91.9967
90.7683
633.002
564.505
494.57
428.771
369.729
319.177
277.855
245.067
219.532
199.453
183.407
170.25
159.056
149.724
141.7
134.704
128.537
123.053
118.14
113.706
109.681
106.009
102.642
99.541
96.6729
94.0102
91.5268
89.2175
87.0324
85.6505
625.138
541.749
465.646
401.414
348.103
304.013
267.82
238.339
214.451
194.994
179.007
165.752
154.267
144.528
136.208
128.938
122.534
116.849
111.77
107.203
103.074
99.3225
95.8972
92.757
89.8655
87.1946
84.7122
82.4218
80.2206
78.7606
609.94
501.328
416.35
353.474
306.062
269
239.137
214.661
194.419
177.521
163.362
151.378
140.87
131.892
124.126
117.306
111.278
105.915
101.117
96.8015
92.9008
89.3592
86.1287
83.1717
80.4518
77.947
75.6163
73.487
71.3904
69.9347
580.244
435.277
344.183
286.583
247.424
218.693
196.157
177.765
162.395
149.28
138.137
128.327
119.841
112.425
105.901
100.125
94.986
90.39
86.2612
82.5358
79.16
76.0898
73.2846
70.7164
68.3489
66.1752
64.137
62.307
60.4398
59.0753
518.314
334.825
250.577
205.872
178.28
159.163
144.388
132.381
122.266
113.332
105.605
98.7618
92.6852
87.2756
82.4451
78.1182
74.2301
70.7256
67.5564
64.6814
62.0638
59.6751
57.4831
55.475
53.6109
51.9113
50.2858
48.8728
47.3614
46.178
383.642
202.063
147.085
122.056
107.462
97.765
89.9992
83.7341
78.3061
73.4215
69.0283
65.0503
61.4454
58.1671
55.1856
52.4747
50.009
47.7641
45.7166
43.846
42.1308
40.559
39.1048
37.7746
36.5197
35.3965
34.278
33.3523
32.3231
31.414
151.872
75.0568
58.0946
50.4603
45.803
42.695
40.1266
37.8989
35.8901
34.033
32.3096
30.7071
29.2282
27.8388
26.5464
25.3524
24.2528
23.2412
22.3098
21.4522
20.6586
19.9281
19.2433
18.6206
18.0166
17.4905
16.945
16.4869
16.0447
15.4994
12.4958
9.27971
7.62728
6.69829
6.10094
5.6778
5.34753
5.07131
4.82905
4.60954
4.40703
4.21833
4.04169
3.87653
3.72156
3.57601
3.43937
3.31115
3.19091
3.07811
2.97242
2.873
2.78025
2.69179
2.61134
2.5302
2.46339
2.38556
2.3258
2.24967
627.495
513.086
231.06
86.9127
0.188415
8.49668
20.3019
31.9868
42.7391
52.4017
60.9873
68.5393
75.0939
80.6918
86.8835
92.8931
95.0994
96.7489
97.9126
98.659
99.0507
99.1439
98.9891
98.6419
98.2024
98.3837
628.535
536.66
261.473
103.712
1.10378
0.817861
12.8135
25.3029
37.0384
47.603
56.918
65.0501
72.0923
78.1325
83.2441
89.2918
95.2827
97.0529
98.3308
99.1784
99.6565
99.8212
99.7225
99.4059
98.9222
98.3676
98.4541
630.474
545.386
343.297
156.052
46.4856
12.5099
26.4428
38.998
50.131
59.7617
67.9451
74.8321
80.5972
85.3949
89.3479
94.439
99.5775
100.557
101.157
101.426
101.411
101.159
100.708
100.093
99.3575
98.5895
98.4997
632.828
554.447
444.086
268.517
141.368
40.5471
18.8362
26.6563
39.8072
51.558
61.7957
70.5736
77.8974
83.8706
88.6677
92.4807
95.4821
97.8105
101.334
104.928
104.9
104.626
104.145
103.493
102.698
101.787
100.783
99.7175
98.6675
98.3428
635.367
565.494
472.762
356.249
233.945
143.097
101.215
90.9101
91.5523
94.961
98.6468
101.923
104.547
106.484
107.796
108.583
108.947
108.981
108.753
110.366
109.231
108.003
106.707
105.359
103.972
102.558
101.126
99.6985
98.3354
97.7452
637.329
574.342
495.417
403.235
312.791
239.469
194.035
169.376
155.934
147.086
141.47
137.168
133.586
130.417
127.498
124.749
122.133
119.639
117.289
114.923
112.682
110.527
108.445
106.429
104.476
102.579
100.738
98.9607
97.2901
96.4326
638.058
578.54
508.249
431.386
356.258
292.27
245.414
213.507
192.251
177.233
165.684
156.835
149.516
143.276
137.822
132.967
128.585
124.597
120.951
117.557
114.41
111.48
108.738
106.158
103.724
101.419
99.23
97.1574
95.2196
94.1186
636.937
576.171
509.046
440.712
376.087
319.912
275.119
241.133
215.867
196.697
181.716
169.446
159.355
150.848
143.513
137.091
131.404
126.319
121.738
117.571
113.763
110.267
107.042
104.053
101.272
98.6748
96.2394
93.9602
91.8244
90.525
633.139
565.072
495.849
431.114
373.256
323.614
282.721
249.966
224.085
203.503
186.907
173.314
161.653
151.892
143.53
136.236
129.809
124.098
118.987
114.38
110.202
106.396
102.911
99.7063
96.7467
94.0033
91.4487
89.0768
86.8345
85.3977
625.17
541.888
466.011
402.181
349.409
305.821
269.966
240.634
216.707
197.096
180.897
167.425
155.752
145.784
137.276
129.837
123.28
117.46
112.259
107.584
103.358
99.52
96.0174
92.8082
89.8549
87.1291
84.5975
82.2635
80.0218
78.5203
609.92
501.263
416.287
353.503
306.275
269.441
239.791
215.469
195.301
178.414
164.21
152.168
141.592
132.525
124.674
117.772
111.666
106.23
101.365
96.9876
93.0298
89.436
86.1579
83.1575
80.3981
77.8575
75.4942
73.3358
71.2118
69.7255
580.209
435.155
343.99
286.364
247.237
218.587
196.155
177.871
162.58
149.524
138.401
128.604
120.119
112.681
106.13
100.325
95.1536
90.525
86.3638
82.6068
79.2006
76.1016
73.2691
70.6753
68.284
66.0883
64.0295
62.1808
60.2964
58.9099
518.287
334.726
250.409
205.653
178.037
158.933
144.195
132.25
122.177
113.295
105.617
98.7979
92.7392
87.3377
82.5083
78.1773
74.2813
70.7662
67.5846
64.6962
62.0645
59.6615
57.4554
55.4335
53.556
51.8438
50.2062
48.7819
47.2607
46.0624
383.631
202.014
146.993
121.925
107.302
97.5977
89.8332
83.5906
78.1874
73.3309
68.966
65.0099
61.4219
58.1564
55.1835
52.4773
50.0131
47.7673
45.7169
43.842
42.1216
40.5439
39.0833
37.7468
36.4853
35.3557
34.2309
33.299
32.2654
31.3473
151.871
75.0449
58.0668
50.4176
45.7444
42.6278
40.0562
37.8321
35.8304
33.9823
32.2687
30.6753
29.203
27.8218
26.5356
25.3459
24.2489
23.2386
22.3073
21.4491
20.6542
19.9221
19.2353
18.6105
18.0041
17.4757
16.928
16.4672
16.0239
15.4748
12.4958
9.27947
7.62616
6.696
6.09732
5.67303
5.3419
5.06525
4.82294
4.60368
4.40162
4.21348
4.03742
3.87275
3.71825
3.57312
3.43682
3.30888
3.18883
3.07617
2.97055
2.87116
2.7784
2.68988
2.60938
2.52811
2.46122
2.38322
2.32334
2.24704
630.054
542.418
347.889
164.423
53.3618
0.132404
15.2008
29.0336
41.5309
52.5775
62.0483
70.0106
76.6456
82.1521
86.7002
90.4227
94.8831
99.2949
100.298
100.911
101.191
101.188
100.946
100.505
99.8999
99.173
98.4119
98.3276
631.053
546.734
399.822
189.131
78.5261
1.55941
1.75085
21.4907
35.1643
47.1949
57.6793
66.5886
74.0147
80.141
85.1682
89.2714
92.5887
96.9348
101.311
101.946
102.246
102.257
102.026
101.589
100.983
100.238
99.3919
98.5297
98.3616
632.824
554.431
444.04
268.059
141.114
39.9493
18.8413
26.5436
39.6712
51.4552
61.7105
70.5001
77.8362
83.8215
88.6295
92.4514
95.4595
97.793
101.321
104.918
104.891
104.619
104.139
103.488
102.694
101.784
100.78
99.7148
98.6651
98.3406
634.932
563.448
466.994
344.125
213.68
122.258
70.6847
65.1672
70.6861
77.6138
84.1272
89.7557
94.3651
97.9828
100.721
102.722
104.125
105.048
107.196
109.405
108.522
107.506
106.389
105.191
103.932
102.624
101.282
99.9291
98.6317
98.0988
636.979
572.352
489.253
389.546
291.39
197.504
149.475
128.974
121.523
119.269
118.705
118.621
118.522
118.214
117.65
116.85
115.86
114.73
113.497
113.919
112.087
110.256
108.44
106.645
104.875
103.133
101.421
99.7527
98.1805
97.4118
638.411
578.909
506.019
423.282
341.448
273.482
226.172
196.629
178.193
165.639
156.532
149.627
143.929
139.019
134.654
130.696
127.058
123.692
120.588
117.584
114.797
112.171
109.682
107.316
105.06
102.903
100.837
98.8663
97.0254
96.0195
638.692
581.211
514.368
442.662
372.809
312.201
265.437
231.779
207.857
190.288
176.747
165.869
157.031
149.521
143.005
137.256
132.119
127.488
123.29
119.423
115.869
112.586
109.537
106.692
104.028
101.523
99.162
96.9398
94.8683
93.6473
637.241
577.481
512.094
446.381
384.64
330.575
286.449
252.039
225.625
205.117
188.857
175.569
164.4
155.052
147.006
139.981
133.775
128.243
123.275
118.773
114.675
110.927
107.482
104.302
101.354
98.6099
96.047
93.6565
91.4195
90.0255
633.227
565.499
496.991
433.448
377.02
328.574
288.328
255.673
229.456
208.326
191.112
176.936
164.785
154.471
145.682
138.011
131.256
125.258
119.895
115.067
110.696
106.72
103.085
99.748
96.6719
93.8259
91.1808
88.7295
86.4134
84.9039
625.138
541.829
466.1
402.677
350.519
307.576
272.192
243.098
219.184
199.437
183.019
169.294
157.415
147.18
138.444
130.798
124.055
118.068
112.717
107.907
103.561
99.6151
96.0162
92.7208
89.6905
86.896
84.3029
81.9146
79.6215
78.0652
609.841
501.008
415.94
353.202
306.164
269.608
240.236
216.135
196.095
179.257
165.03
152.935
142.295
133.138
125.191
118.196
111.999
106.479
101.534
97.0823
93.0561
89.3994
86.0635
83.0103
80.2027
77.6184
75.2151
73.0213
70.8632
69.3365
580.131
434.891
343.58
285.876
246.756
218.193
195.89
177.749
162.57
149.609
138.528
128.764
120.297
112.847
106.274
100.44
95.2361
90.5729
86.3762
82.5838
79.143
76.0106
73.1463
70.5224
68.1027
65.8808
63.7973
61.9265
60.0211
58.6056
518.234
334.549
250.114
205.266
177.598
158.493
143.793
131.924
121.905
113.099
105.489
98.7111
92.6847
87.3024
82.4825
78.1532
74.2532
70.7297
67.5368
64.6348
61.9883
59.5699
57.3479
55.3104
53.4175
51.6908
50.0387
48.6014
47.0687
45.8506
383.611
201.935
146.848
121.718
107.044
97.3182
89.5471
83.3283
77.9546
73.1357
68.8088
64.8845
61.322
58.0771
55.1191
52.4227
49.9639
47.7198
45.6682
43.7901
42.0648
40.4812
39.0139
37.6704
36.4014
35.2648
34.1325
33.1935
32.1552
31.2246
151.869
75.0275
58.0258
50.3537
45.6552
42.5231
39.9437
37.7214
35.7269
33.8898
32.1887
30.6076
29.1447
27.775
26.4979
25.3149
24.2224
23.2148
22.2847
21.4264
20.6306
19.897
19.2082
18.5812
17.972
17.4413
16.8908
16.4268
15.9832
15.4272
12.4958
9.27912
7.62455
6.69267
6.09198
5.66586
5.33328
5.05575
4.8131
4.59396
4.39234
4.20483
4.02949
3.86545
3.71158
3.56703
3.43124
3.3037
3.18398
3.07156
2.9661
2.8668
2.77409
2.68552
2.60503
2.52356
2.45685
2.37807
2.31964
2.24078
633.182
556.175
450.01
321.182
171.217
69.9117
38.6627
52.2052
61.6237
70.4235
78.1199
84.6031
89.8763
94.0349
97.2351
99.6448
101.415
102.671
103.506
105.846
105.544
105.035
104.357
103.54
102.609
101.583
100.484
99.3404
98.222
97.8382
633.98
559.603
458.783
335.485
192.817
88.3393
52.6526
63.7941
70.646
77.9022
84.4334
89.9629
94.439
97.924
100.548
102.458
103.792
104.667
105.169
107.46
106.865
106.102
105.208
104.204
103.113
101.951
100.736
99.4923
98.2884
97.8328
635.36
565.463
472.68
356.051
233.555
142.493
100.859
90.6443
91.325
94.7814
98.5048
101.808
104.453
106.408
107.735
108.534
108.908
108.95
108.727
110.346
109.215
107.989
106.695
105.349
103.964
102.55
101.12
99.6927
98.3302
97.7406
636.976
572.338
489.218
389.473
291.261
197.312
149.326
128.864
121.427
119.189
118.641
118.568
118.479
118.179
117.621
116.827
115.841
114.715
113.484
113.909
112.079
110.249
108.434
106.64
104.871
103.129
101.418
99.7497
98.1778
97.4093
638.438
578.688
504.58
419.422
335.127
253.58
201.357
172.214
156.693
147.747
142.036
137.843
134.43
131.414
128.611
125.941
123.373
120.901
118.523
117.405
114.808
112.313
109.927
107.643
105.455
103.355
101.337
99.4059
97.6022
96.6315
639.309
582.844
515.48
441.345
368.273
305.338
257.745
224.602
201.716
185.362
172.824
162.988
154.941
148.091
142.118
136.815
132.045
127.717
123.784
120.084
116.7
113.56
110.629
107.881
105.296
102.856
100.547
98.3659
96.3375
95.1639
639.129
583.224
519.397
452.443
387.779
330.802
284.86
249.898
223.683
203.717
188.074
175.313
164.764
155.884
148.219
141.503
135.548
130.22
125.423
121.045
117.052
113.388
110.009
106.879
103.967
101.249
98.7028
96.3203
94.103
92.7469
637.35
578.139
514.118
450.759
391.83
340.052
296.946
262.379
235.062
213.365
195.883
181.571
169.381
159.116
150.33
142.667
135.912
129.906
124.529
119.673
115.269
111.254
107.577
104.194
101.069
98.1714
95.4741
92.9667
90.6209
89.121
633.133
565.319
497.18
434.622
379.575
332.426
292.998
260.617
234.229
212.676
194.928
180.202
167.604
156.752
147.53
139.48
132.39
126.099
120.479
115.425
110.855
106.704
102.915
99.4423
96.2467
93.2955
90.5576
88.0251
85.6315
84.0411
624.948
541.25
465.388
402.201
350.589
308.313
273.501
244.76
220.975
201.192
184.632
170.705
158.659
148.195
139.25
131.41
124.49
118.342
112.846
107.905
103.441
99.3893
95.6954
92.3151
89.2087
86.3462
83.6923
81.2506
78.905
77.2882
609.638
500.358
414.991
352.17
305.256
268.969
239.912
216.092
196.249
179.53
165.342
153.238
142.576
133.368
125.351
118.282
112.011
106.417
101.403
96.8852
92.7971
89.0827
85.6934
82.591
79.7382
77.1128
74.6716
72.4447
70.2533
68.6823
579.969
434.374
342.786
284.911
245.739
217.235
195.064
177.089
162.057
149.236
138.227
128.537
120.116
112.685
106.114
100.271
95.05
90.3651
86.1437
82.3247
78.8566
75.6969
72.8059
70.1562
67.7117
65.4666
63.3607
61.4703
59.5456
58.0986
518.14
334.248
249.627
204.627
176.859
157.722
143.046
131.256
121.297
112.592
105.059
98.3471
92.3737
87.03
82.2362
77.9232
74.0313
70.5097
67.3139
64.4057
61.7503
59.3214
57.0878
55.0383
53.1328
51.3941
49.7296
48.281
46.7392
45.4992
383.58
201.819
146.634
121.412
106.657
96.8866
89.0929
82.8897
77.5441
72.7685
68.4854
64.602
61.0747
57.8599
54.9258
52.2472
49.8008
47.5644
45.5169
43.6399
41.9134
40.3269
38.8554
37.5071
36.2324
35.0903
33.952
33.0062
31.9664
31.0197
151.867
75.0044
57.9706
50.2661
45.531
42.3736
39.7787
37.5528
35.5628
33.7364
32.0485
30.4814
29.0304
27.6751
26.4101
25.2366
24.1511
23.1484
22.2214
21.3649
20.5695
19.8356
19.1456
18.5172
17.9061
17.3733
16.8214
16.3522
15.9159
15.339
12.4958
9.27869
7.62251
6.68833
6.08486
5.65609
5.32123
5.04212
4.79858
4.57917
4.37776
4.19078
4.01613
3.85278
3.69964
3.5558
3.42065
3.29369
3.17444
3.0624
2.95724
2.85816
2.76562
2.67712
2.59678
2.51492
2.44977
2.36443
2.33227
2.21113
635.809
567.981
480.643
374.935
272.215
181.714
134.668
134.291
128.295
125.268
123.492
122.231
121.113
119.967
118.732
117.399
115.985
114.519
113.063
111.458
109.87
108.278
106.681
105.083
103.489
101.903
100.329
98.782
97.3117
96.626
636.367
570.32
486.155
385.636
287.346
196.493
147.832
146.599
137.706
132.894
129.752
127.439
125.472
123.628
121.811
119.988
118.157
116.334
114.566
112.695
110.879
109.09
107.323
105.579
103.859
102.165
100.497
98.8691
97.3289
96.5835
637.321
574.305
495.331
403.06
312.51
239.137
193.738
169.129
155.717
146.908
141.325
137.049
133.488
130.336
127.431
124.694
122.087
119.601
117.257
114.896
112.659
110.508
108.428
106.415
104.463
102.568
100.728
98.9521
97.2823
96.4255
638.406
578.888
505.971
423.191
341.303
273.304
226.007
196.487
178.07
165.533
156.445
149.555
143.869
138.968
134.613
130.661
127.029
123.667
120.568
117.567
114.782
112.158
109.671
107.307
105.052
102.895
100.83
98.8603
97.02
96.0145
639.307
582.836
515.462
441.312
368.222
305.273
257.68
224.545
201.666
185.318
172.786
162.957
154.915
148.069
142.099
136.799
132.031
127.706
123.774
120.076
116.693
113.554
110.623
107.876
105.292
102.852
100.543
98.3629
96.3348
95.1614
639.667
584.845
521.369
453.838
388.067
330.075
283.557
248.495
222.441
202.758
187.405
174.894
164.616
155.939
148.441
141.863
136.02
130.782
126.059
121.731
117.781
114.155
110.807
107.701
104.808
102.104
99.5669
97.1909
94.9833
93.6422
639.084
583.55
521.522
458.127
397.811
344.292
299.794
264.415
236.73
214.941
197.492
183.257
171.155
161.021
152.309
144.707
138
132.03
126.679
121.835
117.437
113.423
109.742
106.351
103.214
100.3
97.5857
95.058
92.7043
91.2143
637.031
577.337
513.748
452.001
395.397
345.796
303.994
269.742
242.02
219.554
201.179
186
173.086
161.995
152.567
144.347
137.11
130.688
124.948
119.782
115.107
110.858
106.976
103.414
100.134
97.1019
94.2873
91.6784
89.2342
87.6305
632.669
563.908
495.422
433.333
379.38
333.483
295.033
263.179
236.914
215.214
197.17
182.07
169.177
157.929
148.362
140.011
132.654
126.125
120.295
115.055
110.322
106.026
102.11
98.5254
95.231
92.1931
89.3788
86.7806
84.3201
82.6513
624.454
539.685
463.166
399.873
348.626
306.968
272.793
244.554
221.079
201.443
184.906
170.917
158.81
148.232
139.158
131.194
124.156
117.896
112.298
107.263
102.713
98.5836
94.8193
91.3755
88.2121
85.2989
82.5991
80.1184
77.7307
76.0563
609.206
498.99
412.974
349.847
302.938
266.877
238.154
214.682
195.132
178.64
164.596
152.568
141.969
132.794
124.769
117.681
111.383
105.758
100.71
96.157
92.034
88.2857
84.8638
81.7308
78.8491
76.1973
73.7311
71.4832
69.2681
67.6556
579.659
433.415
341.346
283.159
243.845
215.352
193.303
175.514
160.667
148.043
137.154
127.601
119.274
111.914
105.39
99.5781
94.3757
89.6998
85.4804
81.6585
78.1837
75.015
72.1132
69.452
66.9953
64.7386
62.6203
60.7199
58.7841
57.3079
517.973
333.741
248.834
203.598
175.663
156.447
141.768
130.05
120.156
111.574
104.138
97.5215
91.6291
86.3526
81.6119
77.3394
73.4778
69.9778
66.7967
63.8977
61.2473
58.8201
56.5858
54.5339
52.6244
50.8816
49.2116
47.758
46.2131
44.9541
383.53
201.645
146.322
120.964
106.088
96.2396
88.3995
82.1957
76.8717
72.141
67.9072
64.0742
60.5932
57.4206
54.5227
51.8738
49.4507
47.2323
45.198
43.3304
41.61
40.0274
38.5576
37.2099
35.9342
34.7909
33.6506
32.7013
31.6627
30.7077
151.863
74.9741
57.8977
50.1487
45.3619
42.1657
39.5439
37.3059
35.3146
33.4961
31.8208
30.2688
28.8317
27.4934
26.2438
25.0833
24.0084
23.0138
22.093
21.2409
20.4486
19.7168
19.0277
18.4
17.7886
17.2554
16.7029
16.2332
15.7917
15.228
12.4958
9.27819
7.62
6.68286
6.07566
5.64315
5.30494
5.02325
4.77796
4.55763
4.35595
4.16919
3.99509
3.83239
3.68003
3.53701
3.40266
3.27644
3.15788
3.04642
2.94178
2.84312
2.75093
2.66271
2.58255
2.50123
2.4345
2.35639
2.29633
2.21957
637.111
574.635
499.493
415.365
332.952
266.05
220.007
189.805
172.557
160.788
152.282
145.69
140.229
135.516
131.331
127.539
124.061
120.842
117.859
115.032
112.374
109.867
107.492
105.231
103.073
101.007
99.0257
97.1328
95.3535
94.3918
637.461
576.075
502.727
421.305
341.578
276.049
229.645
198.315
179.464
166.596
156.961
149.588
143.483
138.24
133.615
129.454
125.662
122.175
118.961
115.936
113.108
110.453
107.95
105.578
103.323
101.173
99.1194
97.1637
95.3291
94.3191
638.05
578.507
508.176
431.25
356.05
292.018
245.164
213.282
192.055
177.066
165.542
156.717
149.418
143.194
137.753
132.908
128.535
124.554
120.915
117.526
114.383
111.457
108.717
106.14
103.708
101.405
99.2175
97.1462
95.2095
94.1093
638.686
581.19
514.321
442.579
372.684
312.047
265.281
231.636
207.73
190.178
176.651
165.788
156.963
149.463
142.956
137.214
132.083
127.457
123.264
119.4
115.849
112.568
109.521
106.679
104.016
101.513
99.1524
96.9311
94.8605
93.6401
639.127
583.212
519.373
452.401
387.717
330.725
284.78
249.822
223.614
203.656
188.021
175.266
164.724
155.849
148.189
141.477
135.526
130.201
125.406
121.031
117.039
113.377
109.999
106.87
103.96
101.242
98.6965
96.3146
94.0978
92.7421
639.083
583.545
521.513
458.112
397.789
344.265
299.765
264.386
236.704
214.917
197.471
183.238
171.138
161.006
152.297
144.696
137.99
132.021
126.671
121.829
117.431
113.418
109.737
106.347
103.21
100.297
97.5826
95.0552
92.7018
91.212
638.199
581.007
518.895
457.44
400.335
349.913
307.325
272.474
244.345
221.617
203.072
187.776
174.78
163.637
154.155
145.894
138.622
132.167
126.397
121.201
116.497
112.22
108.311
104.724
101.419
98.3621
95.5241
92.8919
90.4326
88.826
635.97
574.053
509.433
448.226
393.296
345.667
305.423
272.03
244.552
221.929
203.183
187.535
174.252
162.659
152.796
144.217
136.662
129.96
123.976
118.598
113.739
109.33
105.309
101.627
98.2435
95.1219
92.2304
89.5572
87.0428
85.3509
631.564
560.4
490.446
428.109
374.863
330.131
292.824
261.833
236.097
214.654
196.679
181.524
168.572
157.188
147.452
138.965
131.475
124.823
118.88
113.54
108.717
104.342
100.355
96.7085
93.3601
90.2757
87.4207
84.7894
82.2877
80.5545
623.431
536.435
458.442
394.576
343.477
302.405
268.966
241.421
218.501
199.271
183.005
169.176
157.176
146.672
137.613
129.65
122.6
116.322
110.701
105.641
101.067
96.9135
93.1265
89.6616
86.479
83.5489
80.8335
78.3418
75.9346
74.2144
608.37
496.386
409.18
345.45
298.412
262.554
234.218
211.197
192.073
175.957
162.212
150.387
139.984
130.965
123.037
116.02
109.776
104.189
99.1682
94.6346
90.5244
86.7845
83.3678
80.2377
77.3573
74.7063
72.2393
69.9935
67.7735
66.1292
579.082
431.686
338.826
280.144
240.589
212.067
190.143
172.577
157.976
145.626
134.931
125.599
117.444
110.23
103.822
98.1011
92.9718
88.3536
84.1797
80.3934
76.9466
73.7996
70.9147
68.2668
65.8203
63.5721
61.4594
59.566
57.6343
56.1361
517.673
332.876
247.532
201.949
173.767
154.421
139.713
128.065
118.244
109.813
102.506
96.0238
90.2523
85.0827
80.433
76.2366
72.4378
68.9893
65.85
62.9847
60.3613
57.9559
55.7387
53.7007
51.802
50.0684
48.4048
46.9571
45.4211
44.1466
383.445
201.372
145.849
120.297
105.247
95.2789
87.3634
81.1395
75.8294
71.1453
66.9681
63.1977
59.7778
56.6635
53.8183
51.2152
48.8312
46.6453
44.6377
42.7921
41.0893
39.5211
38.0626
36.7243
35.4554
34.3182
33.1828
32.2349
31.2074
30.2403
151.858
74.9328
57.7982
49.9872
45.1284
41.8756
39.2123
36.9508
34.9506
33.1359
31.4718
29.9357
28.5152
27.1969
25.9667
24.8236
23.7637
22.7819
21.8715
21.0281
20.2426
19.5165
18.8318
18.2078
17.5991
17.0679
16.5184
16.0468
15.6134
15.042
12.4958
9.27759
7.61687
6.67583
6.06361
5.6259
5.28287
4.99726
4.74909
4.52694
4.32434
4.13737
3.96357
3.80144
3.64988
3.5078
3.37445
3.24922
3.13159
3.02101
2.91717
2.81921
2.72769
2.63997
2.56042
2.47933
2.41334
2.33492
2.27591
2.19867
636.415
574.041
504.369
432.352
363.81
305.27
260.026
226.681
203.173
185.872
172.551
161.718
152.917
145.449
138.985
133.303
128.244
123.701
119.59
115.831
112.375
109.186
106.228
103.473
100.896
98.4761
96.196
94.0523
92.0379
90.8486
636.611
574.837
506.104
435.439
368.326
310.68
265.561
231.874
207.675
189.694
175.807
164.416
155.184
147.352
140.584
134.644
129.365
124.634
120.36
116.458
112.88
109.583
106.532
103.695
101.047
98.5652
96.2309
94.0398
91.9831
90.7557
636.93
576.145
508.991
440.616
375.943
319.736
274.934
240.957
215.707
196.557
181.594
169.34
159.265
150.77
143.446
137.034
131.354
126.275
121.7
117.538
113.734
110.241
107.019
104.033
101.254
98.6587
96.2249
93.9471
91.8124
90.5139
637.236
577.463
512.056
446.316
384.545
330.458
286.325
251.918
225.514
205.017
188.769
175.491
164.333
154.994
146.956
139.937
133.736
128.209
123.245
118.747
114.652
110.907
107.464
104.286
101.339
98.5969
96.0352
93.6458
91.4097
90.0164
637.347
578.128
514.095
450.721
391.776
339.985
296.873
262.306
234.993
213.302
195.827
181.521
169.336
159.077
150.296
142.637
135.885
129.883
124.508
119.655
115.252
111.239
107.564
104.182
101.058
98.1618
95.4654
92.9588
90.6137
89.1143
637.03
577.332
513.737
451.982
395.371
345.763
303.958
269.705
241.984
219.521
201.149
185.972
173.06
161.973
152.547
144.329
137.095
130.674
124.936
119.771
115.097
110.849
106.967
103.407
100.128
97.0959
94.2818
91.6734
89.2296
87.6262
635.97
574.051
509.429
448.22
393.287
345.655
305.41
272.017
244.539
221.916
203.171
187.524
174.242
162.65
152.788
144.209
136.655
129.954
123.97
118.593
113.735
109.326
105.305
101.624
98.2405
95.1191
92.2279
89.5549
87.0407
85.3489
633.691
566.845
499.229
437.4
383.593
337.864
299.511
267.592
241.093
219.043
200.588
185.044
171.814
160.17
150.208
141.55
133.913
127.133
121.077
115.636
110.724
106.268
102.208
98.4947
95.0851
91.9441
89.0376
86.3567
83.8178
82.0657
629.378
553.487
480.521
417.155
364.344
320.827
284.949
255.254
230.548
209.867
192.431
177.646
164.942
153.754
144.14
135.733
128.301
121.69
115.778
110.461
105.657
101.298
97.326
93.6928
90.3573
87.2863
84.4438
81.8291
79.3264
77.5533
621.488
530.372
449.758
384.818
333.757
293.368
260.889
234.333
212.302
193.812
178.137
164.764
153.099
142.913
134.075
126.285
119.373
113.206
107.676
102.692
98.1808
94.0813
90.3408
86.9167
83.7701
80.8731
78.1865
75.7257
73.3335
71.5884
606.812
491.659
402.492
337.852
290.634
255.057
227.254
204.867
186.374
170.843
157.605
146.156
136.139
127.421
119.735
112.917
106.836
101.385
96.4765
92.038
88.0084
84.3372
80.9797
77.9011
75.0656
72.4551
70.0224
67.8121
65.616
63.9567
578.014
428.595
334.497
275.13
235.279
206.749
185.013
167.76
153.508
141.545
131.148
122.158
114.281
107.31
101.108
95.5617
90.5796
86.0859
82.0172
78.3202
74.9494
71.8676
69.0385
66.4393
64.0347
61.8245
59.7433
57.8815
55.9767
54.4686
517.121
331.359
245.356
199.297
170.795
151.288
136.55
124.993
115.274
107.04
99.9126
93.6205
88.0248
83.0151
78.5071
74.4343
70.7423
67.3855
64.3246
61.5265
58.9605
56.6045
54.4294
52.4285
50.5611
48.8561
47.2164
45.7898
44.2815
42.9958
383.292
200.917
145.097
119.272
103.984
93.853
85.8347