/*--------------------------------*- C++ -*----------------------------------*\
  =========                 |
  \\      /  F ield         | OpenFOAM: The Open Source CFD Toolbox
   \\    /   O peration     | Website:  https://openfoam.org
    \\  /    A nd           | Version:  7
     \\/     M anipulation  |
\*---------------------------------------------------------------------------*/
FoamFile
{
    version     2.0;
    format      ascii;
    class       volScalarField;
    location    "400";
    object      omega;
}
// * * * * * * * * * * * * * * * * * * * * * * * * * * * * * * * * * * * * * //

dimensions      [0 0 -1 0 0 0 0];

internalField   nonuniform List<scalar> 
27370
(
0.558857
0.6949
1.2206
8.18652
3.00743
3.27489
2.98469
2.57011
2.19383
1.88912
1.65089
1.46553
1.32003
1.18979
1.07535
1.00707
0.94949
0.899843
0.85663
0.818667
0.785012
0.75492
0.72779
0.703218
0.679282
0.557162
0.674242
1.07225
5.24481
4.65969
4.04061
3.16657
2.5634
2.14317
1.83852
1.61042
1.43533
1.29802
1.17166
1.05996
0.995503
0.94045
0.892861
0.851292
0.814626
0.781988
0.752692
0.726188
0.70211
0.678578
0.554926
0.650553
0.894057
2.54594
14.6059
6.73006
4.10456
2.98592
2.3696
1.98049
1.71244
1.51613
1.36594
1.24726
1.13426
1.0324
0.974322
0.924208
0.880468
0.841897
0.807568
0.776756
0.748892
0.723515
0.700331
0.677529
0.551755
0.632741
0.824759
1.44512
5.54374
96.8256
7.73729
4.40639
3.12182
2.44319
2.02711
1.74751
1.54698
1.39582
1.27736
1.18165
1.08688
0.998518
0.948469
0.904528
0.865558
0.830696
0.799268
0.770735
0.744671
0.720723
0.698681
0.676795
0.54812
0.613282
0.742887
1.02061
1.81201
3.96433
5.88831
4.01123
3.11769
2.52361
2.12274
1.84012
1.63263
1.47482
1.35098
1.25107
1.16848
1.09878
1.03886
0.965375
0.923266
0.885484
0.851326
0.820246
0.791809
0.765652
0.741483
0.719043
0.698219
0.677272
0.545049
0.597405
0.688913
0.854462
1.12197
1.5901
1.95772
1.77346
1.70122
1.60141
1.49966
1.40485
1.31977
1.24446
1.17797
1.11908
1.0666
1.01951
0.976722
0.938179
0.902933
0.870562
0.8407
0.813041
0.787328
0.763343
0.740911
0.719865
0.700185
0.680048
0.543258
0.587936
0.657785
0.763994
0.910871
1.07448
1.21098
1.29736
1.31651
1.30344
1.27165
1.23086
1.18719
1.14343
1.10098
1.0605
1.02224
0.986239
0.952349
0.920588
0.890758
0.862698
0.836272
0.811366
0.787866
0.765661
0.744658
0.724745
0.706015
0.686416
0.543288
0.586357
0.647002
0.727293
0.825958
0.931424
1.02534
1.09505
1.13304
1.1466
1.14324
1.13003
1.10867
1.08329
1.0557
1.02715
0.998434
0.970024
0.942233
0.915301
0.889334
0.864381
0.840453
0.817542
0.795629
0.774679
0.754665
0.735505
0.717441
0.697976
0.545824
0.594614
0.656525
0.728769
0.808184
0.888467
0.96096
1.01879
1.05798
1.08
1.08774
1.08534
1.07638
1.06081
1.04154
1.01991
0.996882
0.973133
0.949132
0.925225
0.901655
0.878586
0.856126
0.834344
0.813284
0.792958
0.773397
0.7545
0.736751
0.716872
0.552209
0.61705
0.691193
0.767446
0.84206
0.911764
0.972804
1.02198
1.05747
1.07977
1.09039
1.09118
1.08675
1.07587
1.06021
1.04172
1.0213
0.999636
0.977261
0.954576
0.931882
0.909403
0.887297
0.865674
0.844626
0.824176
0.804424
0.785163
0.767328
0.746287
0.565536
0.663661
0.764702
0.856172
0.934698
1.00037
1.05381
1.09511
1.12439
1.14263
1.15064
1.15026
1.14517
1.13384
1.11808
1.09943
1.07874
1.05667
1.03376
1.01041
0.986937
0.963588
0.940548
0.917932
0.895873
0.874356
0.85362
0.833138
0.814765
0.791492
0.594052
0.759328
0.910372
1.02876
1.11604
1.17884
1.22382
1.25462
1.2735
1.28298
1.28297
1.27777
1.26628
1.25005
1.2303
1.20799
1.18388
1.15858
1.13259
1.10629
1.07998
1.0539
1.02825
1.00309
0.978651
0.954732
0.931956
0.90893
0.889516
0.862333
0.664512
0.975766
1.21581
1.37011
1.46197
1.51284
1.54068
1.55221
1.55182
1.54555
1.53129
1.51197
1.48858
1.46193
1.43284
1.40203
1.3701
1.33755
1.30479
1.27216
1.23992
1.20825
1.17737
1.14721
1.11824
1.08968
1.06328
1.03533
1.01427
0.980189
0.896594
1.57455
1.95135
2.11885
2.17939
2.18144
2.16668
2.13526
2.09717
2.0566
2.01321
1.96781
1.92084
1.8731
1.82495
1.77673
1.72877
1.68136
1.6348
1.58928
1.54507
1.50212
1.46089
1.42069
1.38299
1.34504
1.31202
1.27403
1.25016
1.20286
2.25129
3.88455
4.19845
4.15147
4.0172
3.84974
3.69793
3.55904
3.43109
3.31213
3.19963
3.09232
2.98852
2.89039
2.79643
2.70593
2.61869
2.53468
2.45401
2.37663
2.30282
2.23201
2.16532
2.10027
2.04141
1.98003
1.93119
1.86889
1.83631
1.75831
25.3733
18.8431
15.4887
13.6037
12.3921
11.534
10.8642
10.3036
9.81159
9.36548
8.95369
8.56985
8.2105
7.87458
7.55939
7.2634
6.98558
6.72495
6.4806
6.25145
6.03677
5.83491
5.64662
5.46705
5.30392
5.13878
5.00544
4.83841
4.75451
4.53925
0.55716
0.674234
1.07216
5.26359
4.79266
4.07899
3.17639
2.5665
2.14434
1.839
1.61065
1.43545
1.29809
1.1717
1.06
0.99553
0.940469
0.892875
0.851302
0.814634
0.781994
0.752697
0.726192
0.702113
0.67858
0.555814
0.660378
0.97694
3.85439
6.22671
4.25916
3.15457
2.50378
2.08239
1.78846
1.57225
1.40711
1.2774
1.15475
1.04541
0.984367
0.931889
0.886298
0.846288
0.81084
0.779153
0.750604
0.724687
0.701074
0.677926
0.553676
0.642225
0.85193
2.20078
82.5422
18.8337
6.13594
3.84927
2.84589
2.28035
1.91885
1.66817
1.48379
1.34213
1.22967
1.11972
1.01966
0.964557
0.916704
0.874706
0.83749
0.804222
0.774244
0.747039
0.722186
0.69942
0.676963
0.550628
0.626662
0.79606
1.28982
3.89081
69.656
33.0678
6.40153
3.97973
2.9213
2.33046
1.95645
1.69986
1.51324
1.37117
1.25901
1.16783
1.07521
0.988253
0.940509
0.898353
0.860778
0.827015
0.796458
0.768619
0.74311
0.719607
0.697925
0.676336
0.547248
0.608822
0.72727
0.975561
1.61377
2.8261
4.58034
3.40688
2.8146
2.35092
2.01566
1.76958
1.58393
1.43995
1.32528
1.23171
1.15369
1.08736
1.02999
0.957482
0.917062
0.880617
0.847523
0.817296
0.789545
0.763943
0.740222
0.718147
0.69762
0.676921
0.544445
0.594494
0.680214
0.829596
1.06275
1.47696
1.79729
1.64285
1.60416
1.52859
1.44516
1.36359
1.28823
1.2201
1.15898
1.10415
1.0548
1.01013
0.969281
0.932257
0.898224
0.866831
0.83776
0.810744
0.785554
0.762
0.739922
0.719167
0.699728
0.67979
0.542873
0.586159
0.65298
0.752465
0.887337
1.03626
1.16297
1.24691
1.27258
1.26563
1.24164
1.20655
1.16762
1.12768
1.08828
1.05024
1.01395
0.979535
0.946931
0.916215
0.887237
0.859874
0.834027
0.8096
0.786496
0.764621
0.743891
0.724206
0.705667
0.686226
0.54306
0.585334
0.644391
0.721599
0.815327
0.915117
1.00467
1.07225
1.11112
1.12683
1.12582
1.11542
1.0964
1.07306
1.04721
1.02012
0.992616
0.965222
0.938287
0.912071
0.886702
0.86225
0.838741
0.816182
0.794564
0.773863
0.754058
0.735074
0.71716
0.697818
0.545702
0.594066
0.655154
0.725888
0.803053
0.880738
0.951012
1.00745
1.04638
1.06893
1.07767
1.0762
1.06851
1.05408
1.03579
1.01504
0.99277
0.96968
0.946244
0.922822
0.899667
0.876952
0.854793
0.833267
0.812427
0.792287
0.772885
0.754123
0.736492
0.716708
0.552152
0.616793
0.690545
0.766079
0.839572
0.907946
0.967749
1.01603
1.05111
1.07343
1.08436
1.08561
1.08161
1.07139
1.05628
1.0383
1.01835
0.997102
0.975098
0.952738
0.93033
0.908099
0.886209
0.864773
0.843887
0.823577
0.803946
0.784788
0.767046
0.746079
0.565516
0.663572
0.764465
0.855628
0.933632
0.998618
1.05134
1.09201
1.1209
1.13895
1.147
1.14673
1.14182
1.13079
1.11531
1.09696
1.07654
1.05474
1.03206
1.00893
0.985652
0.962478
0.939593
0.917113
0.895175
0.873763
0.853121
0.832717
0.81442
0.791203
0.59405
0.759332
0.910374
1.02869
1.11576
1.17821
1.22276
1.25311
1.27165
1.28086
1.28076
1.27549
1.264
1.24787
1.22826
1.2061
1.18214
1.157
1.13116
1.105
1.07883
1.05288
1.02733
1.00228
0.977929
0.95409
0.931388
0.908421
0.889072
0.861929
0.664517
0.975826
1.21598
1.37035
1.46218
1.51287
1.54043
1.55157
1.55093
1.54436
1.52982
1.51038
1.48692
1.46026
1.4312
1.40045
1.3686
1.33614
1.30348
1.27094
1.2388
1.20721
1.17642
1.14633
1.11744
1.08894
1.0626
1.03469
1.01369
0.979635
0.896601
1.57466
1.95166
2.11934
2.17994
2.18183
2.16688
2.13508
2.09666
2.05577
2.0121
1.96652
1.91944
1.87161
1.82344
1.77523
1.7273
1.67995
1.63346
1.58801
1.54387
1.501
1.45983
1.4197
1.38206
1.34416
1.3112
1.27322
1.24942
1.20211
2.2513
3.88474
4.19891
4.152
4.01773
3.84999
3.69782
3.55851
3.43019
3.31091
3.19819
3.09072
2.98691
2.88866
2.79465
2.70416
2.61696
2.53301
2.45243
2.37513
2.3014
2.23065
2.16403
2.09904
2.04023
1.97886
1.93009
1.86776
1.83522
1.75724
25.3733
18.8428
15.4875
13.6011
12.3882
11.529
10.8584
10.2975
9.80556
9.35985
8.94864
8.56548
8.20681
7.87144
7.55676
7.26123
6.98376
6.72341
6.47926
6.25022
6.0356
5.83374
5.64541
5.46574
5.30253
5.13724
5.00376
4.83663
4.75249
4.53713
0.554923
0.65054
0.894043
2.5446
17.8819
6.76994
4.12431
2.99512
2.3739
1.98259
1.71352
1.51673
1.36628
1.24746
1.13439
1.03249
0.974388
0.924256
0.880504
0.841924
0.80759
0.776772
0.748905
0.723526
0.700339
0.677536
0.553677
0.642234
0.852097
2.20605
86.2472
19.0308
6.1519
3.85802
2.85041
2.28267
1.92006
1.66882
1.48416
1.34235
1.2298
1.11981
1.01972
0.964597
0.916734
0.874729
0.837508
0.804236
0.774254
0.747048
0.722193
0.699425
0.676968
0.551397
0.629416
0.787481
1.48349
6.2918
8.69446
4.63489
3.22721
2.50535
2.0675
1.77502
1.56629
1.40966
1.2874
1.18896
1.08957
0.997281
0.947335
0.903467
0.864563
0.829765
0.798396
0.769917
0.743902
0.719998
0.697992
0.676158
0.548639
0.61611
0.755086
1.09364
2.2004
6.49493
10.5114
6.86485
4.36519
3.1726
2.5052
2.0845
1.79792
1.59137
1.43579
1.31427
1.21641
1.13558
1.05089
0.970199
0.926466
0.88746
0.85237
0.820576
0.791585
0.764997
0.740493
0.717799
0.696772
0.675719
0.545733
0.601258
0.70321
0.904722
1.33241
2.01562
2.56099
2.56089
2.30664
2.03691
1.81146
1.63065
1.4859
1.36868
1.27223
1.1915
1.1228
1.06342
1.01136
0.943517
0.90609
0.872027
0.840843
0.812154
0.785645
0.761047
0.738142
0.71673
0.696749
0.676494
0.5434
0.589533
0.665986
0.79172
0.975562
1.19831
1.37185
1.44713
1.4453
1.41056
1.35378
1.29308
1.23359
1.1775
1.12554
1.07775
1.03386
0.993477
0.956064
0.921754
0.889897
0.860262
0.832618
0.806766
0.782529
0.759758
0.738325
0.718101
0.699104
0.679524
0.542211
0.583128
0.644914
0.733699
0.85001
0.980006
1.09248
1.16659
1.19912
1.20252
1.18973
1.16413
1.13323
1.09983
1.06574
1.032
0.999185
0.967595
0.937297
0.908462
0.88102
0.854924
0.830127
0.80657
0.784189
0.762914
0.742684
0.723414
0.705227
0.686066
0.542677
0.583607
0.639989
0.712081
0.797744
0.888717
0.971117
1.03422
1.0737
1.09265
1.09589
1.08931
1.07469
1.0549
1.03209
1.00757
0.982235
0.956674
0.931285
0.906364
0.882081
0.858538
0.835791
0.813872
0.792793
0.772545
0.753122
0.734458
0.716821
0.697696
0.545504
0.593175
0.652888
0.721086
0.794451
0.867783
0.934232
0.988068
1.02633
1.04963
1.06004
1.06011
1.05446
1.04216
1.02557
1.00636
0.985461
0.963554
0.94114
0.918596
0.896192
0.87412
0.852509
0.83145
0.811008
0.791208
0.772096
0.753578
0.736164
0.716547
0.552069
0.61641
0.689539
0.763882
0.835481
0.901567
0.959195
1.00583
1.04011
1.06237
1.0738
1.07581
1.07252
1.06344
1.0493
1.03224
1.01311
0.992619
0.971281
0.94951
0.927617
0.905836
0.884337
0.863241
0.842648
0.822592
0.803182
0.78421
0.766639
0.7458
0.565495
0.663478
0.764176
0.854867
0.932009
0.995817
1.04726
1.08682
1.11494
1.13261
1.14067
1.14057
1.13593
1.12539
1.11042
1.09257
1.07265
1.0513
1.02905
1.00631
0.983383
0.960523
0.937916
0.915684
0.893964
0.872742
0.852269
0.832007
0.813848
0.790733
0.594057
0.759393
0.910496
1.02875
1.11551
1.17736
1.22115
1.25069
1.26858
1.27727
1.27696
1.27154
1.25999
1.24403
1.22463
1.20272
1.17903
1.15416
1.12858
1.10268
1.07675
1.05101
1.02567
1.00079
0.976611
0.952917
0.930348
0.907492
0.888255
0.861196
0.664533
0.975974
1.21637
1.37095
1.46278
1.51318
1.54024
1.55066
1.54956
1.5424
1.52729
1.50761
1.48397
1.45725
1.42822
1.39755
1.36582
1.33351
1.30102
1.26865
1.23667
1.20524
1.17461
1.14466
1.1159
1.08751
1.06128
1.03346
1.01255
0.978567
0.896614
1.57489
1.95231
2.12034
2.18109
2.1827
2.1674
2.1349
2.09585
2.05434
2.0101
1.96413
1.9168
1.86881
1.82055
1.77233
1.72445
1.67719
1.63081
1.58549
1.54148
1.49874
1.4577
1.41768
1.38015
1.34234
1.30948
1.27156
1.24784
1.20059
2.2513
3.8851
4.19976
4.15297
4.01869
3.85041
3.69755
3.55742
3.42835
3.30845
3.19525
3.08746
2.98356
2.88508
2.79097
2.70048
2.61335
2.52952
2.44907
2.37192
2.29834
2.22772
2.16123
2.09633
2.03763
1.97632
1.92763
1.86532
1.83282
1.75484
25.3732
18.8423
15.4852
13.5965
12.3808
11.5193
10.8469
10.2852
9.79316
9.34795
8.93766
8.55563
8.19814
7.86377
7.55005
7.25536
6.9786
6.7188
6.47505
6.24628
6.03181
5.83
5.64165
5.46186
5.29854
5.13298
4.99938
4.83185
4.74761
4.53175
0.551762
0.632783
0.825084
1.44834
5.59175
103.074
7.79244
4.42638
3.13192
2.44894
2.03049
1.74951
1.54819
1.39657
1.27784
1.18196
1.08708
0.998658
0.948573
0.904605
0.865617
0.830742
0.799304
0.770764
0.744694
0.720742
0.698697
0.676808
0.550635
0.626699
0.796278
1.29178
3.90206
60.2336
33.8235
6.44932
3.99455
2.92839
2.33452
1.95889
1.70135
1.51416
1.37175
1.25938
1.16808
1.07537
0.98836
0.940589
0.898413
0.860825
0.827052
0.796487
0.768642
0.743128
0.719622
0.697937
0.676346
0.548643
0.616133
0.755176
1.09415
2.20441
6.58246
10.5029
6.88953
4.37802
3.17772
2.50783
2.08606
1.7989
1.592
1.4362
1.31454
1.21659
1.13571
1.05098
0.970253
0.926508
0.887492
0.852395
0.820595
0.791601
0.76501
0.740503
0.717807
0.696779
0.675725
0.546266
0.604072
0.713277
0.938964
1.46024
2.34312
3.57295
3.43558
2.86934
2.39679
2.04972
1.79454
1.60244
1.45387
1.33595
1.24006
1.16036
1.09281
1.01949
0.948236
0.909421
0.874307
0.842309
0.812981
0.785966
0.760965
0.737741
0.716082
0.6959
0.675516
0.543938
0.592501
0.676319
0.822759
1.05069
1.47426
1.78872
1.88778
1.82752
1.70682
1.58098
1.46625
1.36602
1.27954
1.20483
1.13987
1.08287
1.03234
0.987109
0.926491
0.892771
0.861689
0.832909
0.806166
0.781233
0.757918
0.736056
0.715496
0.696219
0.676516
0.542179
0.5838
0.649922
0.751244
0.89118
1.0506
1.18564
1.26318
1.28692
1.27776
1.24955
1.21067
1.16855
1.12611
1.08483
1.04543
1.00816
0.973041
0.939892
0.908964
0.879839
0.852424
0.826592
0.802221
0.779203
0.757438
0.736834
0.717291
0.698865
0.679725
0.541459
0.579683
0.635789
0.712946
0.810184
0.916702
1.01208
1.08025
1.11791
1.1311
1.12766
1.11357
1.09161
1.06584
1.03809
1.00957
0.981036
0.952949
0.925543
0.899077
0.873582
0.849104
0.825648
0.803204
0.781749
0.761245
0.741657
0.722919
0.705185
0.686366
0.542265
0.581729
0.635118
0.701488
0.778248
0.85872
0.932526
0.990971
1.03049
1.05247
1.06016
1.05761
1.04819
1.03263
1.0135
0.992149
0.969518
0.946261
0.922821
0.899542
0.876639
0.854254
0.832481
0.811382
0.790994
0.771326
0.752393
0.734136
0.716855
0.697989
0.545319
0.592311
0.650564
0.71594
0.784946
0.853129
0.914935
0.965657
1.00287
1.02674
1.03882
1.04096
1.03722
1.02758
1.01309
0.9958
0.976595
0.95617
0.935044
0.91361
0.89216
0.870903
0.84999
0.829527
0.809593
0.790226
0.771483
0.753275
0.736141
0.716717
0.552017
0.616154
0.688723
0.761822
0.831321
0.894696
0.94966
0.994223
1.02738
1.04939
1.06126
1.06415
1.06161
1.05384
1.04088
1.02493
1.00683
0.987266
0.966759
0.945725
0.92448
0.903265
0.88226
0.861593
0.841372
0.821637
0.802505
0.783767
0.766418
0.745724
0.565511
0.663552
0.764203
0.854517
0.930775
0.993233
1.04313
1.08126
1.10835
1.12542
1.13336
1.1334
1.129
1.11896
1.10457
1.08732
1.06798
1.04719
1.02546
1.00319
0.980699
0.958227
0.935968
0.914044
0.892597
0.871615
0.851355
0.83127
0.813291
0.790287
0.594097
0.759625
0.910987
1.02936
1.11591
1.17712
1.21999
1.24847
1.2655
1.27341
1.27276
1.26703
1.25531
1.23946
1.22026
1.19861
1.17521
1.15065
1.12538
1.09978
1.07413
1.04866
1.02357
0.99892
0.974942
0.951431
0.929032
0.90631
0.887228
0.860259
0.66457
0.976275
1.21714
1.37216
1.46416
1.51427
1.54073
1.55018
1.54844
1.54041
1.52449
1.50438
1.48042
1.45353
1.42445
1.39383
1.3622
1.33004
1.29773
1.26555
1.23377
1.20253
1.17209
1.14231
1.11371
1.08547
1.05939
1.03167
1.0109
0.976999
0.896639
1.57525
1.95334
2.12197
2.18302
2.18432
2.16856
2.13509
2.09513
2.05269
2.00761
1.96102
1.91324
1.86494
1.8165
1.76821
1.72034
1.67315
1.62689
1.58172
1.53788
1.49529
1.45442
1.41455
1.37718
1.33948
1.30677
1.26892
1.24532
1.19816
2.25131
3.8856
4.20099
4.15436
4.02008
3.85102
3.69713
3.55578
3.42555
3.30466
3.19068
3.08234
2.97821
2.87936
2.78505
2.69451
2.60743
2.52374
2.44347
2.36651
2.29314
2.22272
2.15642
2.09166
2.03313
1.97189
1.92337
1.86107
1.82865
1.75081
25.3732
18.8416
15.4819
13.5897
12.37
11.5047
10.8294
10.2659
9.77318
9.3282
8.91881
8.53807
8.18203
7.84895
7.53651
7.243
6.96725
6.70829
6.46519
6.23691
6.02277
5.82114
5.63289
5.45304
5.28969
5.12384
4.99022
4.82225
4.73769
4.52232
0.548133
0.613354
0.743199
1.02201
1.82139
4.00113
6.00428
4.04668
3.13389
2.53237
2.12792
1.84339
1.63479
1.47628
1.35198
1.25175
1.16896
1.09912
1.0391
0.965545
0.923396
0.885585
0.851405
0.820309
0.791859
0.765693
0.741516
0.71907
0.698241
0.67729
0.547259
0.608881
0.7275
0.976548
1.61854
3.21717
4.6234
3.44401
2.82741
2.35766
2.01965
1.77214
1.58565
1.44112
1.32609
1.23228
1.15409
1.08765
1.0302
0.957624
0.917172
0.880702
0.84759
0.81735
0.789588
0.763978
0.740251
0.71817
0.69764
0.676937
0.54574
0.601296
0.703346
0.90526
1.33471
2.02394
2.56936
2.56774
2.31178
2.04023
1.8136
1.63208
1.48689
1.36938
1.27273
1.19186
1.12306
1.06362
1.0115
0.943612
0.906165
0.872086
0.84089
0.812191
0.785675
0.761072
0.738163
0.716747
0.696764
0.676505
0.543942
0.592518
0.676372
0.822925
1.05117
1.47568
1.79041
1.88927
1.82883
1.70783
1.58171
1.46677
1.3664
1.27981
1.20504
1.14002
1.08298
1.03243
0.987175
0.926536
0.892807
0.861717
0.832932
0.806184
0.781249
0.75793
0.736066
0.715505
0.696227
0.676523
0.542256
0.584402
0.652566
0.759462
0.909816
1.15166
1.3494
1.4542
1.46907
1.43347
1.37567
1.31212
1.24949
1.19063
1.13644
1.08689
1.04162
1.00015
0.962037
0.90979
0.879923
0.851959
0.825709
0.801021
0.777762
0.755809
0.735056
0.715402
0.696881
0.677732
0.54109
0.578674
0.635706
0.717189
0.822992
0.940066
1.04444
1.11582
1.15185
1.16021
1.15185
1.13179
1.1051
1.07532
1.04429
1.01314
0.982507
0.95276
0.924024
0.896612
0.870346
0.845269
0.821355
0.798561
0.776844
0.756147
0.736424
0.717602
0.699789
0.681082
0.540846
0.576808
0.62795
0.695066
0.776161
0.863227
0.943214
1.0049
1.04459
1.06453
1.06919
1.06374
1.0506
1.03212
1.01059
0.987286
0.9631
0.93862
0.914223
0.890233
0.866799
0.844033
0.822002
0.800743
0.780271
0.760583
0.741673
0.723495
0.706247
0.687751
0.541994
0.580405
0.631322
0.692708
0.761564
0.832504
0.898075
0.951751
0.990437
1.01443
1.02577
1.02691
1.02189
1.0107
0.995196
0.977055
0.957203
0.936327
0.914919
0.893361
0.871907
0.850745
0.830001
0.809768
0.790106
0.771048
0.752627
0.734795
0.717894
0.699262
0.545269
0.591985
0.649261
0.712323
0.777439
0.840766
0.89802
0.945514
0.981316
1.00534
1.01868
1.02272
1.02062
1.0135
1.00113
0.985753
0.968268
0.949363
0.929564
0.909282
0.888824
0.868418
0.848232
0.82839
0.808984
0.790064
0.771703
0.75381
0.736973
0.717712
0.552088
0.616398
0.688867
0.76118
0.828962
0.88986
0.942175
0.984552
1.01635
1.03784
1.04989
1.05348
1.05155
1.04492
1.03308
1.01821
1.00112
0.982483
0.962812
0.942522
0.921935
0.901298
0.880797
0.860567
0.840725
0.821315
0.802467
0.783959
0.766848
0.746265
0.565627
0.664064
0.76511
0.855492
0.931231
0.992552
1.04095
1.07756
1.10343
1.11967
1.12727
1.12728
1.12296
1.11323
1.09932
1.08259
1.06379
1.04351
1.02228
1.00047
0.978397
0.956308
0.934393
0.912776
0.891602
0.870858
0.850813
0.830897
0.813116
0.79019
0.594208
0.760218
0.912255
1.0312
1.11788
1.17867
1.22066
1.24801
1.26399
1.27087
1.26971
1.26343
1.25137
1.23544
1.21629
1.19479
1.1716
1.14729
1.12228
1.09694
1.07156
1.04635
1.02149
0.997062
0.973289
0.949958
0.927734
0.905138
0.88623
0.859326
0.664652
0.976854
1.21857
1.37444
1.46693
1.51695
1.54283
1.55117
1.54864
1.53937
1.52256
1.50172
1.47719
1.44994
1.42065
1.38994
1.35832
1.32624
1.29404
1.26202
1.23041
1.19936
1.16909
1.13949
1.11106
1.08297
1.05705
1.02943
1.00882
0.97499
0.896682
1.57582
1.95491
2.12445
2.18605
2.1871
2.17081
2.13619
2.09505
2.05134
2.00515
1.95765
1.90919
1.86037
1.81157
1.76308
1.71513
1.66795
1.62177
1.57672
1.53303
1.49061
1.44992
1.41021
1.37302
1.33546
1.30291
1.26516
1.24169
1.19469
2.25132
3.88626
4.20257
4.15616
4.0219
3.85182
3.69655
3.55353
3.42171
3.29937
3.18425
3.07503
2.97044
2.87102
2.77637
2.68568
2.59862
2.51504
2.43496
2.35824
2.28512
2.21494
2.14889
2.08434
2.02604
1.96495
1.9166
1.85452
1.82177
1.7451
25.3732
18.8407
15.4778
13.5809
12.3555
11.4849
10.805
10.2382
9.7437
9.29819
8.88921
8.50953
8.15491
7.82322
7.51226
7.22019
6.94576
6.68795
6.44582
6.21832
6.00479
5.80361
5.61568
5.43602
5.27273
5.10715
4.97233
4.80894
4.70571
4.51899
0.545063
0.597476
0.689153
0.855273
1.12436
1.59641
1.9681
1.77948
1.70554
1.6046
1.50197
1.40653
1.32102
1.24539
1.17867
1.11961
1.067
1.01981
0.97696
0.938363
0.903078
0.870677
0.840793
0.813116
0.787389
0.763393
0.740953
0.719899
0.700214
0.680072
0.544457
0.594554
0.680406
0.830207
1.06432
1.47918
1.80456
1.64654
1.60748
1.53107
1.447
1.36496
1.28925
1.22088
1.15957
1.1046
1.05514
1.01039
0.969487
0.932418
0.898352
0.866933
0.837842
0.81081
0.785609
0.762045
0.73996
0.719198
0.699755
0.679812
0.543409
0.589575
0.666113
0.792086
0.976467
1.19995
1.37386
1.44911
1.44713
1.41206
1.35495
1.29397
1.23428
1.17803
1.12595
1.07807
1.03411
0.993672
0.956218
0.921875
0.889994
0.860341
0.832682
0.806818
0.782572
0.759794
0.738355
0.718126
0.699126
0.679541
0.542184
0.583823
0.649989
0.751417
0.89157
1.05128
1.18648
1.26404
1.28773
1.27848
1.25013
1.21114
1.16892
1.1264
1.08507
1.04562
1.0083
0.97316
0.939987
0.90904
0.879901
0.852475
0.826633
0.802255
0.779232
0.757462
0.736854
0.717308
0.69888
0.679737
0.541092
0.578684
0.635731
0.717247
0.823109
0.940267
1.04469
1.11609
1.15211
1.16045
1.15207
1.13196
1.10524
1.07544
1.04439
1.01322
0.982571
0.952812
0.924067
0.896646
0.870374
0.845292
0.821374
0.798577
0.776858
0.756159
0.736433
0.717611
0.699797
0.681087
0.540457
0.575486
0.626172
0.69393
0.776984
0.866753
0.949235
1.01216
1.05182
1.0708
1.07414
1.06741
1.05272
1.03304
1.01051
0.98638
0.961534
0.936544
0.911755
0.887493
0.863851
0.840927
0.818776
0.797434
0.776911
0.757196
0.738279
0.720113
0.702867
0.684482
0.540633
0.575543
0.623535
0.683605
0.753093
0.826067
0.893995
0.949286
0.988547
1.01221
1.02272
1.02287
1.01682
1.00443
0.988138
0.969343
0.948983
0.927725
0.906042
0.884307
0.862753
0.841551
0.820819
0.800638
0.78106
0.762111
0.743813
0.726132
0.709327
0.691048
0.542073
0.580463
0.630257
0.688394
0.751512
0.81514
0.873919
0.92313
0.96025
0.985052
0.998742
1.00292
1.00069
0.993369
0.980972
0.965605
0.94819
0.929425
0.909831
0.889809
0.869654
0.849586
0.829764
0.810304
0.79129
0.772771
0.7548
0.73733
0.720771
0.702267
0.545521
0.592857
0.650267
0.712275
0.77479
0.834379
0.887771
0.932273
0.96642
0.990075
1.00404
1.0094
1.00843
1.00323
0.992633
0.978855
0.962826
0.945219
0.926565
0.907278
0.887678
0.868009
0.848453
0.829145
0.810192
0.791654
0.773615
0.755977
0.739405
0.720205
0.552411
0.617673
0.691003
0.763543
0.830552
0.889742
0.939885
0.980207
1.01049
1.03113
1.04294
1.04683
1.0452
1.03926
1.02824
1.01419
0.997883
0.979972
0.960969
0.941281
0.921229
0.901063
0.880973
0.861101
0.841567
0.82242
0.803801
0.785468
0.768568
0.748
0.56594
0.665439
0.767733
0.859065
0.93505
0.99581
1.04305
1.07823
1.10279
1.11793
1.12484
1.12456
1.12
1.1102
1.0965
1.08005
1.06157
1.04163
1.02073
0.999244
0.977481
0.955676
0.93402
0.912636
0.891671
0.871107
0.851232
0.831432
0.813833
0.790898
0.594459
0.761492
0.914959
1.03525
1.12274
1.18358
1.22494
1.25117
1.26599
1.27155
1.26967
1.26246
1.24982
1.23347
1.21411
1.19252
1.16934
1.14509
1.1202
1.095
1.06978
1.04473
1.02004
0.995767
0.972147
0.948948
0.926865
0.904352
0.885617
0.858702
0.664816
0.977932
1.22115
1.37853
1.47207
1.52234
1.54778
1.55496
1.55148
1.54068
1.52271
1.50079
1.4754
1.44748
1.41771
1.38668
1.35488
1.32272
1.29052
1.25854
1.22702
1.19608
1.16594
1.13646
1.10818
1.0802
1.05442
1.02688
1.00645
0.972629
0.896761
1.57672
1.9573
2.12825
2.19076
2.19171
2.17488
2.13894
2.09635
2.05099
2.00334
1.95458
1.90511
1.85548
1.80609
1.75718
1.70898
1.66169
1.61549
1.5705
1.52691
1.48463
1.4441
1.40454
1.36753
1.33011
1.29775
1.26011
1.2368
1.18981
2.25134
3.8871
4.2046
4.15848
4.02423
3.85286
3.69577
3.55059
3.41663
3.29232
3.17556
3.06506
2.95967
2.85942
2.76423
2.67325
2.58611
2.5026
2.42271
2.34623
2.2734
2.20351
2.13779
2.0735
2.01553
1.95463
1.90659
1.84458
1.81242
1.73477
25.3732
18.8397
15.4727
13.5698
12.3368
11.4586
10.7719
10.1999
9.70182
9.25444
8.84492
8.4657
8.11218
7.78182
7.47243
7.18202
6.90923
6.65294
6.41218
6.18588
5.97339
5.77305
5.58588
5.4067
5.24409
5.07833
4.94534
4.77689
4.69291
4.47639
0.54327
0.587993
0.657953
0.76444
0.9119
1.07622
1.21329
1.29981
1.31861
1.30525
1.27306
1.23199
1.18808
1.14414
1.10154
1.06094
1.02259
0.986523
0.952576
0.920771
0.890907
0.862819
0.836372
0.811448
0.787934
0.765718
0.744706
0.724786
0.70605
0.686445
0.542883
0.586209
0.653121
0.752827
0.888122
1.03754
1.16466
1.24872
1.27426
1.26711
1.24283
1.20751
1.16838
1.12829
1.08877
1.05063
1.01426
0.979787
0.947134
0.916379
0.887371
0.859984
0.834118
0.809674
0.786559
0.764673
0.743935
0.724243
0.705699
0.686252
0.542219
0.583165
0.645015
0.733945
0.850522
0.980844
1.09355
1.16773
1.20023
1.2035
1.19059
1.16483
1.13379
1.10029
1.06612
1.0323
0.99943
0.967794
0.93746
0.908594
0.881128
0.855014
0.830202
0.806632
0.784241
0.762957
0.742721
0.723445
0.705254
0.686088
0.541464
0.579707
0.635851
0.713087
0.810463
0.91715
1.01265
1.08087
1.11853
1.13167
1.12817
1.114
1.09197
1.06614
1.03833
1.00977
0.981203
0.953087
0.925657
0.899171
0.87366
0.849168
0.825702
0.80325
0.781788
0.761277
0.741684
0.722942
0.705205
0.686382
0.540849
0.57682
0.627981
0.695134
0.776288
0.863426
0.943469
1.00519
1.04488
1.0648
1.06944
1.06397
1.05079
1.03229
1.01072
0.987401
0.963196
0.938701
0.91429
0.89029
0.866846
0.844072
0.822035
0.800772
0.780295
0.760603
0.74169
0.72351
0.70626
0.687762
0.540634
0.575548
0.623547
0.683628
0.753134
0.826131
0.894077
0.949379
0.988645
1.0123
1.02281
1.02295
1.0169
1.0045
0.988192
0.969389
0.949022
0.927758
0.90607
0.884332
0.862774
0.841569
0.820834
0.800651
0.781071
0.762121
0.743821
0.726138
0.709333
0.691053
0.54113
0.577059
0.624626
0.681309
0.743887
0.807727
0.867094
0.916892
0.954408
0.979379
0.99308
0.9972
0.994849
0.987355
0.974895
0.959466
0.942016
0.923245
0.903672
0.883699
0.863616
0.843636
0.823914
0.804562
0.785661
0.767261
0.749407
0.732064
0.715592
0.697325
0.542778
0.582947
0.633805
0.691196
0.751297
0.810237
0.864072
0.909492
0.944634
0.969171
0.983871
0.9899
0.989243
0.984465
0.974391
0.96099
0.945347
0.928136
0.909885
0.891009
0.871823
0.852567
0.83342
0.814517
0.795958
0.777808
0.760136
0.742885
0.72657
0.708002
0.546317
0.595855
0.655255
0.718149
0.779954
0.837411
0.888028
0.929965
0.962301
0.985032
0.998852
1.0047
1.00424
1
0.9906
0.977801
0.962713
0.945968
0.928083
0.909467
0.890446
0.871268
0.852125
0.833161
0.814491
0.796181
0.778329
0.760814
0.744424
0.725103
0.55319
0.62079
0.696616
0.771011
0.83869
0.897301
0.946012
0.984584
1.01327
1.03267
1.04371
1.04727
1.04552
1.03957
1.02885
1.01513
0.999186
0.981638
0.962982
0.943614
0.923851
0.903939
0.88407
0.864384
0.845008
0.825987
0.807479
0.789199
0.772444
0.751724
0.566615
0.668363
0.773364
0.867087
0.944527
1.00559
1.05218
1.08612
1.10925
1.12298
1.12875
1.12781
1.12248
1.11208
1.09816
1.08158
1.06304
1.04312
1.02227
1.00086
0.979181
0.957468
0.935903
0.914602
0.893716
0.873214
0.853409
0.833618
0.816155
0.793062
0.594969
0.764006
0.920192
1.04311
1.13245
1.19403
1.23511
1.26029
1.2738
1.27769
1.27476
1.26615
1.25248
1.23527
1.21527
1.19323
1.16972
1.14526
1.12023
1.09496
1.06971
1.04466
1.01999
0.995753
0.972179
0.949016
0.927002
0.904479
0.885896
0.858848
0.665136
0.979925
1.22573
1.38572
1.48114
1.53216
1.55735
1.56327
1.55869
1.54596
1.52644
1.50299
1.47631
1.44731
1.41669
1.38502
1.35274
1.32024
1.28782
1.25571
1.22413
1.19317
1.16305
1.13362
1.1054
1.07747
1.05181
1.02428
1.00402
0.970143
0.896909
1.57821
1.96112
2.13423
2.19819
2.19924
2.18182
2.14436
2.09994
2.05248
2.00291
1.95242
1.90153
1.8507
1.80038
1.75078
1.7021
1.6545
1.60813
1.56307
1.51951
1.47729
1.43688
1.39744
1.3606
1.32329
1.29113
1.25359
1.23043
1.1836
2.25137
3.88825
4.20734
4.16158
4.02735
3.85429
3.6948
3.54679
3.40999
3.28302
3.16402
3.05172
2.94506
2.84369
2.74771
2.65626
2.56891
2.48541
2.40567
2.32945
2.25696
2.18742
2.12211
2.05815
2.00061
1.93999
1.89235
1.83063
1.79858
1.72155
25.3732
18.8385
15.4663
13.5555
12.3124
11.4236
10.7271
10.1471
9.6432
9.19213
8.78074
8.40109
8.04818
7.71897
7.41122
7.12273
6.85195
6.59766
6.35881
6.13427
5.92342
5.7245
5.53869
5.36054
5.19911
5.03399
4.90201
4.73414
4.65061
4.4351
0.543297
0.5864
0.647116
0.727555
0.826482
0.932256
1.02643
1.09626
1.1342
1.14765
1.14417
1.13081
1.10932
1.08383
1.05615
1.02752
0.99874
0.970278
0.942443
0.915475
0.889479
0.864502
0.840554
0.817627
0.795701
0.77474
0.754717
0.735549
0.717479
0.698008
0.543069
0.585372
0.644489
0.721822
0.815759
0.915794
1.00556
1.07324
1.1121
1.12773
1.12663
1.1161
1.09698
1.07354
1.04761
1.02045
0.992894
0.965452
0.938478
0.91223
0.886835
0.862362
0.838835
0.81626
0.794631
0.773919
0.754106
0.735115
0.717195
0.697847
0.542683
0.583636
0.640064
0.712245
0.798054
0.889198
0.971742
1.03492
1.07441
1.09332
1.0965
1.08985
1.07514
1.05528
1.03241
1.00784
0.982462
0.956864
0.931444
0.906497
0.882193
0.858632
0.83587
0.813939
0.79285
0.772593
0.753164
0.734494
0.716851
0.697721
0.542269
0.581749
0.635169
0.701595
0.778443
0.859019
0.932913
0.99141
1.03095
1.05291
1.06056
1.05798
1.0485
1.0329
1.01373
0.992347
0.969686
0.946402
0.922941
0.899644
0.876725
0.854326
0.832542
0.811434
0.791038
0.771364
0.752425
0.734164
0.71688
0.698009
0.541997
0.580417
0.631352
0.692769
0.761671
0.832667
0.898286
0.951994
0.990693
1.01469
1.02601
1.02713
1.02208
1.01087
0.995345
0.977183
0.957314
0.936421
0.915
0.893429
0.871965
0.850794
0.830044
0.809804
0.790137
0.771075
0.75265
0.734815
0.717911
0.699276
0.542075
0.58047
0.630272
0.688423
0.751562
0.815216
0.874017
0.923245
0.960373
0.985177
0.998862
1.00304
1.0008
0.993461
0.981053
0.965676
0.948252
0.929479
0.909877
0.889848
0.869688
0.849616
0.82979
0.810326
0.791308
0.772787
0.754813
0.737342
0.720781
0.702276
0.542778
0.582949
0.63381
0.691206
0.751315
0.810262
0.864105
0.909532
0.944677
0.969216