/*--------------------------------*- C++ -*----------------------------------*\
  =========                 |
  \\      /  F ield         | OpenFOAM: The Open Source CFD Toolbox
   \\    /   O peration     | Website:  https://openfoam.org
    \\  /    A nd           | Version:  7
     \\/     M anipulation  |
\*---------------------------------------------------------------------------*/
FoamFile
{
    version     2.0;
    format      ascii;
    class       volScalarField;
    location    "400";
    object      p;
}
// * * * * * * * * * * * * * * * * * * * * * * * * * * * * * * * * * * * * * //

dimensions      [0 2 -2 0 0 0 0];

internalField   nonuniform List<scalar> 
27370
(
121.297
190.903
291.678
500.95
-40.986
-25.2382
-15.6115
-9.34497
-5.17735
-2.5199
-0.899995
0.0465258
0.576196
0.942562
0.995685
0.828026
0.80883
0.750614
0.674001
0.599285
0.528566
0.458102
0.417077
0.292112
0.618564
105.111
157.838
259.477
435.145
-40.3489
-24.0166
-14.632
-8.68014
-4.79083
-2.31404
-0.796527
0.0950122
0.592984
0.918166
0.984825
0.839056
0.807789
0.747374
0.67008
0.594726
0.523611
0.454161
0.408275
0.302783
0.571086
85.7598
109.431
192.278
315.844
-55.2045
-34.2523
-20.1104
-12.1212
-7.15318
-3.93076
-1.85927
-0.570023
0.198363
0.628363
0.884274
0.954546
0.834523
0.794463
0.731305
0.654916
0.580491
0.510294
0.442099
0.394482
0.294448
0.534569
68.5413
71.17
110.303
183.701
206.229
-163.994
-54.4642
-28.6887
-16.2588
-9.4969
-5.47958
-2.94677
-1.3257
-0.30666
0.309298
0.656824
0.818543
0.902125
0.815035
0.769408
0.704188
0.630203
0.558025
0.489779
0.42346
0.374934
0.278887
0.486774
52.6223
51.4826
59.7636
85.757
69.4233
11.8054
-65.0274
-61.1831
-34.7816
-19.7567
-11.3145
-6.45178
-3.55847
-1.77656
-0.660071
0.0335053
0.448768
0.665512
0.74484
0.831334
0.776539
0.729794
0.66473
0.594917
0.526612
0.461684
0.398268
0.349674
0.258265
0.429311
38.331
37.4309
37.2363
35.0468
20.6388
-2.09054
-28.0636
-26.8316
-18.1348
-10.9526
-6.46685
-3.65147
-1.87058
-0.74889
-0.0486974
0.375752
0.617736
0.728216
0.787815
0.765832
0.724827
0.673773
0.612894
0.549216
0.486431
0.426291
0.366989
0.319367
0.233707
0.365938
26.9594
25.8125
23.9928
20.1496
11.5551
-5.10246
-13.9815
-16.2007
-11.5697
-7.55976
-4.7322
-2.74253
-1.40751
-0.538987
0.0147197
0.355672
0.553079
0.649193
0.67806
0.682718
0.648013
0.602288
0.549471
0.493755
0.438147
0.384248
0.330353
0.284941
0.206443
0.300211
18.7586
17.5076
15.3272
10.9799
4.9273
-3.56574
-8.56307
-9.67522
-7.49221
-5.25211
-3.42373
-2.03115
-1.04929
-0.388771
0.0430677
0.314114
0.473554
0.554971
0.585779
0.583877
0.556638
0.519502
0.476054
0.429627
0.382605
0.336285
0.289128
0.247359
0.177647
0.235504
13.2134
11.8962
9.62328
5.69704
1.31284
-3.41542
-5.96028
-6.4266
-5.21668
-3.8122
-2.57222
-1.58172
-0.851351
-0.341327
0.00223263
0.224471
0.359669
0.433001
0.464866
0.468164
0.452042
0.425803
0.393341
0.357592
0.32046
0.282996
0.243932
0.207406
0.148275
0.174747
9.75556
8.35137
6.0452
2.70371
-0.44635
-3.20771
-4.54526
-4.66448
-3.87795
-2.92846
-2.0535
-1.3287
-0.774821
-0.372383
-0.0915035
0.0973962
0.218347
0.289829
0.326755
0.33968
0.335957
0.322217
0.302127
0.278228
0.252118
0.224697
0.195076
0.165514
0.11893
0.120206
7.86364
6.3557
4.04578
1.27557
-1.02764
-2.74895
-3.5221
-3.52864
-3.01018
-2.36091
-1.73789
-1.2037
-0.779498
-0.457944
-0.223409
-0.0576779
0.0556113
0.129561
0.174853
0.199531
0.209423
0.20948
0.202859
0.191773
0.17765
0.161334
0.142456
0.121631
0.0897203
0.0733438
7.06678
5.48238
3.27284
1.04095
-0.712331
-1.94576
-2.53875
-2.61345
-2.34015
-1.94081
-1.52541
-1.14807
-0.830779
-0.576741
-0.380456
-0.232489
-0.12323
-0.0443776
0.0111317
0.0489391
0.0733902
0.0881384
0.0957695
0.0982212
0.0968322
0.0924906
0.0855123
0.0751318
0.0601111
0.0347088
6.94067
5.38903
3.46584
1.70882
0.272301
-0.80715
-1.45429
-1.7225
-1.71466
-1.56151
-1.34571
-1.11647
-0.90064
-0.710931
-0.550909
-0.419321
-0.313058
-0.228526
-0.162128
-0.110597
-0.0711401
-0.0412479
-0.0189363
-0.00252934
0.00926788
0.0174593
0.02324
0.024768
0.0287105
0.00376363
7.06653
5.78144
4.32092
2.9365
1.65617
0.558983
-0.257609
-0.783476
-1.06079
-1.16352
-1.15377
-1.07757
-0.967771
-0.845838
-0.724658
-0.611317
-0.509294
-0.419893
-0.343091
-0.278112
-0.223828
-0.178863
-0.141876
-0.111501
-0.0864563
-0.065634
-0.046771
-0.0323261
-0.00817408
-0.0223671
7.01105
6.30096
5.33488
4.23578
3.0663
1.93222
0.947223
0.174615
-0.373972
-0.726536
-0.923342
-1.00474
-1.00668
-0.958123
-0.880645
-0.78946
-0.694735
-0.602893
-0.517662
-0.440902
-0.37324
-0.314501
-0.263991
-0.220774
-0.183536
-0.151167
-0.120471
-0.0931619
-0.0506325
-0.0465013
6.89047
6.60052
5.99153
5.12364
4.08922
2.98948
1.93557
1.01861
0.287029
-0.252602
-0.618589
-0.840441
-0.951059
-0.981511
-0.95797
-0.900874
-0.825339
-0.742008
-0.657965
-0.577613
-0.50343
-0.436564
-0.37719
-0.324984
-0.278908
-0.237984
-0.198782
-0.161941
-0.105509
-0.0797724
105.061
157.849
259.274
434.349
-40.0568
-23.8521
-14.5886
-8.6693
-4.78797
-2.31324
-0.796334
0.0950362
0.592963
0.918142
0.984829
0.83906
0.807796
0.747386
0.670096
0.594743
0.523629
0.454178
0.40829
0.302793
0.571096
93.4959
130.12
228.183
381.384
-38.1621
-22.3872
-13.5639
-8.02866
-4.42591
-2.12197
-0.700702
0.139296
0.608617
0.897982
0.971762
0.84532
0.804377
0.742254
0.664816
0.589201
0.517976
0.449503
0.399671
0.313632
0.521258
78.4251
91.6508
167.33
266.601
377.505
-56.8588
-32.6619
-19.0149
-11.3561
-6.66436
-3.64551
-1.70487
-0.492356
0.233417
0.639731
0.867344
0.94047
0.835542
0.788593
0.724525
0.648409
0.574105
0.504072
0.436944
0.385939
0.304479
0.486649
63.0375
63.4701
90.5058
158.854
168.087
23.9809
-139.368
-52.4066
-27.6343
-15.5968
-9.0413
-5.17649
-2.75978
-1.2192
-0.25117
0.334471
0.664654
0.808218
0.888054
0.810119
0.760614
0.69541
0.622086
0.550473
0.482727
0.41764
0.366337
0.287283
0.443189
48.6043
47.5142
52.2667
74.4534
59.6162
1.08164
-55.9911
-54.6196
-32.5299
-18.8067
-10.8341
-6.17499
-3.39148
-1.67901
-0.607831
0.057231
0.455634
0.665511
0.737109
0.819661
0.76647
0.718297
0.654091
0.585266
0.517921
0.453807
0.391789
0.341065
0.264803
0.390782
35.6054
34.6138
33.7212
29.8639
17.0852
-1.16426
-24.6852
-24.0417
-16.6294
-10.2279
-6.06863
-3.42498
-1.74356
-0.681927
-0.0190114
0.382859
0.611544
0.716765
0.776947
0.751678
0.710729
0.660257
0.600612
0.538243
0.476744
0.417685
0.359926
0.310832
0.238297
0.332919
25.2039
24.0486
22.0447
17.774
9.6035
-4.88377
-12.6644
-14.6637
-10.7662
-7.10752
-4.45928
-2.58625
-1.32118
-0.495209
0.0317997
0.356267
0.543713
0.634408
0.660596
0.664599
0.631827
0.58727
0.535935
0.481793
0.427695
0.37508
0.322833
0.276589
0.20909
0.272892
17.6491
16.4512
14.2641
9.97757
4.15273
-3.50144
-7.98674
-8.98364
-7.08643
-5.00131
-3.27524
-1.95253
-1.01273
-0.377538
0.0387685
0.300805
0.455416
0.534772
0.564665
0.564156
0.538948
0.503419
0.461733
0.417053
0.371675
0.326783
0.281323
0.239313
0.178462
0.213779
12.5229
11.2905
9.08186
5.29061
1.06597
-3.27279
-5.64838
-6.06862
-4.98722
-3.66915
-2.4902
-1.54244
-0.839141
-0.345373
-0.0115486
0.205374
0.338152
0.411013
0.443453
0.448125
0.433867
0.409437
0.378823
0.344856
0.309402
0.273431
0.236049
0.199799
0.147468
0.158256
9.32559
8.02118
5.80355
2.59213
-0.457923
-3.04814
-4.33128
-4.44941
-3.73537
-2.83978
-2.00479
-1.30885
-0.773691
-0.382772
-0.10857
0.0768486
0.196461
0.268039
0.305893
0.320229
0.318277
0.306319
0.288002
0.265809
0.241317
0.215372
0.187349
0.158485
0.116795
0.108391
7.58588
6.18473
3.97019
1.30526
-0.935348
-2.58765
-3.35245
-3.37814
-2.90793
-2.29703
-1.70351
-1.19091
-0.78102
-0.468576
-0.239381
-0.0764469
0.0357686
0.109801
0.155884
0.181786
0.193176
0.194788
0.18973
0.180167
0.167511
0.152577
0.135141
0.115326
0.086621
0.065516
6.87177
5.39588
3.27697
1.11996
-0.593126
-1.79888
-2.39839
-2.49593
-2.25729
-1.88718
-1.495
-1.13492
-0.829652
-0.583579
-0.392231
-0.247077
-0.139145
-0.0605925
-0.00471526
0.0338891
0.0594091
0.0753449
0.0842187
0.0879209
0.0877685
0.0846423
0.0788873
0.0697096
0.0564748
0.0301161
6.78641
5.33954
3.491
1.78277
0.374967
-0.689498
-1.34256
-1.62817
-1.64413
-1.51266
-1.31492
-1.09976
-0.894327
-0.711921
-0.556802
-0.428337
-0.323889
-0.240228
-0.17404
-0.122266
-0.0822582
-0.0516303
-0.0284676
-0.0111456
0.00160127
0.0107856
0.0175253
0.0203264
0.0249503
0.00162094
6.931
5.73375
4.32487
2.97382
1.71888
0.637229
-0.177675
-0.711225
-1.00187
-1.11869
-1.12185
-1.05662
-0.955532
-0.840215
-0.723871
-0.613937
-0.514205
-0.426241
-0.350239
-0.285593
-0.231298
-0.186086
-0.148683
-0.117774
-0.0921169
-0.0705831
-0.0510683
-0.03544
-0.0113856
-0.0226707
6.9057
6.23145
5.29696
4.22413
3.07905
1.96463
0.991233
0.222584
-0.328047
-0.686005
-0.889751
-0.978423
-0.987165
-0.944529
-0.871956
-0.784672
-0.692938
-0.603302
-0.519629
-0.443906
-0.37687
-0.318439
-0.267997
-0.224661
-0.187174
-0.154409
-0.123349
-0.0951956
-0.0530218
-0.0459502
6.80084
6.51698
5.92546
5.07614
4.06107
2.98047
1.94258
1.03685
0.311546
-0.225793
-0.592344
-0.816608
-0.93061
-0.96476
-0.944808
-0.890955
-0.8182
-0.737153
-0.654917
-0.575943
-0.502766
-0.436595
-0.377662
-0.325685
-0.279676
-0.238659
-0.19931
-0.162064
-0.105832
-0.078631
85.7392
109.509
192.374
316.166
-54.5155
-34.0356
-19.9725
-12.0615
-7.13115
-3.92304
-1.85657
-0.569094
0.198664
0.628439
0.884281
0.954592
0.834559
0.794499
0.731352
0.654969
0.580547
0.51035
0.442151
0.394526
0.294478
0.534598
78.428
91.7
167.473
267.009
378.42
-57.3818
-32.6013
-18.9593
-11.3264
-6.65183
-3.64069
-1.70306
-0.491699
0.233638
0.639782
0.867353
0.940501
0.835569
0.78862
0.724558
0.648446
0.574143
0.50411
0.436978
0.385968
0.304498
0.486668
67.546
69.2578
121.633
186.25
225.554
-55.5754
-29.4408
-16.7443
-9.79108
-5.65359
-3.04401
-1.37438
-0.326122
0.306103
0.659743
0.836727
0.907906
0.819582
0.769135
0.704514
0.630286
0.557763
0.489284
0.423746
0.372005
0.295062
0.453802
54.6224
53.2168
64.729
109.404
91.1007
20.6794
-93.7884
-89.9205
-46.4911
-24.9816
-14.0586
-8.04807
-4.53361
-2.36762
-0.999524
-0.141791
0.37793
0.66976
0.778778
0.854328
0.787746
0.737005
0.672746
0.601883
0.532549
0.466775
0.403605
0.352091
0.277614
0.412702
42.2754
40.9479
42.0123
43.8272
46.7944
0.0364606
-39.8773
-42.3204
-27.7738
-16.6886
-9.76634
-5.58154
-3.04662
-1.48396
-0.508374
0.0965767
0.459069
0.649712
0.705106
0.784535
0.738419
0.69089
0.628944
0.563076
0.498455
0.436705
0.376937
0.326568
0.254944
0.363116
31.2361
30.1109
28.8355
25.6354
12.602
-5.6347
-19.0238
-19.9755
-14.2676
-9.01868
-5.43484
-3.08366
-1.56498
-0.598561
0.00732082
0.375727
0.585924
0.683144
0.73919
0.714821
0.677749
0.629929
0.573439
0.514401
0.45598
0.399611
0.344395
0.296215
0.228346
0.308375
22.3794
21.2743
19.3424
15.0134
7.18628
-3.65226
-11.0989
-12.3292
-9.40772
-6.37996
-4.05335
-2.36968
-1.21614
-0.455673
0.0324433
0.334498
0.509926
0.595544
0.620637
0.624883
0.596045
0.555078
0.507366
0.456806
0.406015
0.356326
0.306851
0.262035
0.199169
0.25161
15.8733
14.7948
12.7703
8.71063
3.18331
-3.172
-7.11344
-7.88203
-6.38746
-4.59372
-3.04645
-1.84076
-0.971888
-0.377937
0.0143885
0.263531
0.412229
0.490148
0.521032
0.52308
0.501976
0.470373
0.432533
0.391544
0.349574
0.307736
0.26519
0.225037
0.168707
0.195747
11.4288
10.3393
8.32973
4.80219
0.834609
-2.98305
-5.13774
-5.49964
-4.59784
-3.43345
-2.36223
-1.48836
-0.831939
-0.365466
-0.047154
0.161965
0.291917
0.365113
0.399665
0.407535
0.397231
0.37672
0.349913
0.319563
0.287469
0.254556
0.220119
0.186039
0.138027
0.14334
8.6583
7.50539
5.48683
2.49677
-0.372976
-2.73831
-3.95623
-4.09001
-3.4861
-2.68843
-1.92606
-1.28154
-0.77966
-0.408856
-0.145883
0.0340531
0.152009
0.224387
0.264482
0.281884
0.283504
0.275158
0.260364
0.241533
0.220201
0.197187
0.172021
0.145501
0.107828
0.0963722
7.1701
5.92232
3.89193
1.40002
-0.723629
-2.28302
-3.04378
-3.1122
-2.72256
-2.18292
-1.64395
-1.17081
-0.787203
-0.491303
-0.271684
-0.113631
-0.00311186
0.071318
0.119091
0.147452
0.16175
0.166398
0.164365
0.157742
0.147901
0.135641
0.12085
0.103403
0.0783069
0.0561224
6.59062
5.26369
3.30435
1.27529
-0.361124
-1.5274
-2.14072
-2.28193
-2.10369
-1.78786
-1.43884
-1.11089
-0.82812
-0.596951
-0.414868
-0.274986
-0.169526
-0.0915296
-0.0349474
0.00516735
0.0326966
0.0508848
0.0621129
0.0681857
0.0703758
0.0695463
0.0661059
0.0591629
0.049022
0.0230625
6.56537
5.25381
3.53131
1.91389
0.561815
-0.4772
-1.13905
-1.45509
-1.51231
-1.42033
-1.25594
-1.06702
-0.881139
-0.712624
-0.566932
-0.444535
-0.343673
-0.261803
-0.196139
-0.14401
-0.103052
-0.0711011
-0.0463854
-0.0273767
-0.0128657
-0.00186598
0.00675525
0.0115106
0.0186063
-0.00336211
6.72992
5.63883
4.31795
3.03207
1.825
0.772302
-0.0361764
-0.58059
-0.892587
-1.03363
-1.05978
-1.0145
-0.929677
-0.827
-0.720116
-0.617009
-0.521995
-0.437107
-0.362927
-0.299162
-0.245053
-0.199527
-0.161452
-0.12962
-0.102856
-0.0800711
-0.0591926
-0.0420234
-0.0162207
-0.0257479
6.7199
6.10322
5.22294
4.19826
3.09669
2.01738
1.06595
0.305944
-0.24675
-0.613261
-0.8287
-0.929942
-0.950666
-0.918627
-0.854954
-0.774844
-0.688682
-0.603217
-0.522537
-0.448846
-0.383074
-0.325307
-0.275063
-0.231565
-0.19364
-0.160208
-0.128325
-0.0991366
-0.0559419
-0.0472459
6.62773
6.36586
5.8051
4.99021
4.01166
2.96666
1.95856
1.07372
0.360016
-0.173331
-0.541321
-0.770466
-0.891135
-0.932502
-0.919522
-0.871946
-0.80456
-0.727919
-0.649168
-0.572848
-0.501609
-0.436776
-0.378687
-0.327151
-0.281256
-0.240078
-0.200375
-0.162567
-0.105987
-0.0778509
68.5295
71.1972
110.497
184.014
205.641
-149.384
-54.6727
-28.7066
-16.2243
-9.46398
-5.46073
-2.93771
-1.32169
-0.304957
0.310006
0.657108
0.818669
0.902294
0.815178
0.769542
0.704326
0.630343
0.558163
0.48991
0.423577
0.375033
0.278952
0.486838
63.0385
63.485
90.6149
159.201
168.492
25.4812
-136.338
-52.6588
-27.6698
-15.5808
-9.02055
-5.16314
-2.75292
-1.21601
-0.249761
0.33509
0.664914
0.808334
0.888199
0.810246
0.760733
0.695531
0.622207
0.550591
0.482839
0.417739
0.36642
0.287339
0.44324
54.6224
53.2134
64.7351
109.525
91.3947
20.1745
-93.5097
-90.4615
-46.6016
-25.0103
-14.0592
-8.0423
-4.52864
-2.36464
-0.997981
-0.141041
0.378296
0.66993
0.778873
0.854436
0.787841
0.737092
0.672831
0.601965
0.532628
0.466847
0.403669
0.352144
0.277651
0.412734
44.6441
42.8793
43.6231
49.3045
55.3054
0.756281
-56.4677
-57.7016
-36.3879
-20.9004
-11.955
-6.80887
-3.77095
-1.91329
-0.751341
-0.0261934
0.41332
0.660892
0.724247
0.799618
0.749391
0.700175
0.637976
0.571107
0.505496
0.442907
0.382522
0.331836
0.260254
0.374434
34.7559
33.372
31.9417
30.4198
15.8418
-1.73785
-25.4238
-29.7109
-21.7503
-13.8667
-8.35572
-4.83002
-2.63224
-1.26193
-0.404009
0.128495
0.448387
0.618855
0.65654
0.728323
0.694003
0.649506
0.591224
0.529933
0.469524
0.411426
0.354883
0.305997
0.237804
0.328243
25.986
24.8597
23.039
19.2464
9.48304
-4.55737
-14.1057
-15.1785
-11.4781
-7.58872
-4.68927
-2.69615
-1.37677
-0.524041
0.0159218
0.347008
0.537774
0.628245
0.681284
0.65884
0.628283
0.585019
0.533349
0.479313
0.425488
0.373157
0.321563
0.275506
0.211611
0.277268
18.9169
17.9224
16.0434
11.9962
5.18084
-3.15064
-8.88728
-9.84625
-7.85076
-5.50274
-3.56729
-2.11957
-1.10554
-0.426126
0.0151469
0.291302
0.453836
0.535223
0.560964
0.566749
0.543632
0.50811
0.465756
0.420438
0.37448
0.329098
0.283555
0.241432
0.183026
0.224444
13.6635
12.747
10.949
7.27677
2.38137
-2.77709
-6.00781
-6.6335
-5.53516
-4.07835
-2.75745
-1.70272
-0.92709
-0.387353
-0.0261511
0.206653
0.348298
0.425091
0.458102
0.463911
0.448614
0.422726
0.390422
0.354736
0.317673
0.280267
0.241842
0.204837
0.153333
0.172522
10.0526
9.14503
7.40246
4.22967
0.683369
-2.57452
-4.44621
-4.78562
-4.09233
-3.12121
-2.19227
-1.41731
-0.824415
-0.3956
-0.0985219
0.0999123
0.22605
0.299809
0.337397
0.349716
0.344928
0.329958
0.308534
0.283316
0.256006
0.227485
0.19721
0.166578
0.123592
0.123914
7.81088
6.84855
5.09364
2.39754
-0.207416
-2.31499
-3.44022
-3.61224
-3.14743
-2.47911
-1.81551
-1.24172
-0.786287
-0.444112
-0.197276
-0.025384
0.0899375
0.163183
0.206228
0.227768
0.234266
0.230925
0.221049
0.206941
0.190071
0.171234
0.150102
0.127147
0.0945004
0.080502
6.63588
5.58149
3.79542
1.53465
-0.423048
-1.86909
-2.61937
-2.74835
-2.46355
-2.02009
-1.55645
-1.13841
-0.792266
-0.520309
-0.314841
-0.164244
-0.056615
0.0179611
0.0677898
0.0993531
0.117544
0.126335
0.128478
0.125949
0.120057
0.111581
0.100527
0.0865595
0.0662659
0.0435085
6.22245
5.08479
3.33884
1.48268
-0.0456164
-1.15926
-1.78669
-1.98539
-1.88657
-1.64447
-1.35526
-1.07248
-0.821871
-0.612358
-0.444015
-0.312175
-0.21073
-0.133962
-0.0767434
-0.0347846
-0.0046446
0.0165612
0.0309982
0.0403427
0.0457976
0.0481955
0.0480276
0.0442827
0.0384735
0.0133891
6.26864
5.12995
3.57781
2.08521
0.811836
-0.190338
-0.859944
-1.21451
-1.32577
-1.28722
-1.16889
-1.01677
-0.858759
-0.710329
-0.578484
-0.465173
-0.369845
-0.290909
-0.22632
-0.173965
-0.131883
-0.0982266
-0.0714382
-0.0501315
-0.0331822
-0.0196519
-0.008371
-0.000885753
0.0098178
-0.0103835
6.45491
5.49974
4.29885
3.1036
1.96382
0.953085
0.156838
-0.399515
-0.738577
-0.91183
-0.969394
-0.951867
-0.890031
-0.805473
-0.712323
-0.619259
-0.531299
-0.451103
-0.379795
-0.317522
-0.263874
-0.218059
-0.179155
-0.146104
-0.117833
-0.0933224
-0.0705189
-0.0512456
-0.0228007
-0.0302797
6.46229
5.9211
5.11438
4.15639
3.11547
2.08581
1.16663
0.420576
-0.133213
-0.510387
-0.741381
-0.859814
-0.897219
-0.880129
-0.829144
-0.759354
-0.681283
-0.601932
-0.525687
-0.455049
-0.391218
-0.334513
-0.284648
-0.240996
-0.202501
-0.16817
-0.13513
-0.104552
-0.0597901
-0.0493175
6.38733
6.155
5.63541
4.86803
3.9404
2.94511
1.97898
1.12403
0.427373
-0.0996931
-0.469181
-0.704821
-0.83465
-0.886085
-0.882925
-0.844252
-0.784526
-0.714204
-0.640475
-0.568001
-0.499586
-0.436714
-0.379875
-0.329003
-0.283297
-0.241913
-0.201713
-0.163152
-0.106025
-0.076923
52.6168
51.4648
59.7902
85.9299
69.7108
11.061
-64.6159
-61.6825
-35.0083
-19.8175
-11.3217
-6.44399
-3.54962
-1.77024
-0.656284
0.0356041
0.449917
0.666158
0.745167
0.831758
0.776887
0.730115
0.665037
0.59521
0.526889
0.461938
0.39849
0.349858
0.258389
0.429427
48.602
47.5011
52.2723
74.5817
59.7352
10.0891
-56.6027
-54.8645
-32.7426
-18.8601
-10.8431
-6.17052
-3.38502
-1.67409
-0.604793
0.0589444
0.456619
0.666074
0.737375
0.820047
0.766792
0.718594
0.654373
0.585535
0.518174
0.454038
0.391991
0.341233
0.264919
0.390882
42.2734
40.9388
41.998
43.8466
46.8907
-0.0923723
-40.2461
-42.556
-27.8776
-16.724
-9.77554
-5.58111
-3.04373
-1.4813
-0.506559
0.0976709
0.459747
0.650115
0.70532
0.784872
0.738698
0.691145
0.629183
0.5633
0.498663
0.436894
0.377101
0.326702
0.255037
0.363195
34.7546
33.3684
31.9348
30.4093
15.8278
-1.81202
-25.5352
-29.7859
-21.7901
-13.8832
-8.36155
-4.83118
-2.63174
-1.26111
-0.40336
0.128919
0.448681
0.61904
0.656653
0.72854
0.694179
0.649665
0.591372
0.53007
0.46965
0.411539
0.354981
0.306077
0.237859
0.328289
27.3298
26.1649
24.2665
20.6562
10.2344
-2.33403
-15.3065
-19.1517
-15.5325
-10.6712
-6.73446
-3.99403
-2.20221
-1.05691
-0.331368
0.122139
0.396521
0.547083
0.574409
0.656257
0.633531
0.594597
0.541797
0.486629
0.431858
0.378687
0.326429
0.28002
0.215863
0.286207
20.7444
19.7886
17.9656
14.0476
6.46355
-3.75513
-9.92703
-10.9567
-8.77221
-6.08296
-3.8785
-2.2746
-1.17505
-0.44848
0.0184809
0.308267
0.47746
0.561597
0.610371
0.588204
0.563967
0.526883
0.481747
0.43422
0.386371
0.339329
0.29243
0.249523
0.190358
0.239789
15.3909
14.5852
12.9326
9.25268
3.68773
-2.68582
-6.77014
-7.60221
-6.32388
-4.59458
-3.06097
-1.86649
-1.00436
-0.412851
-0.0218134
0.227347
0.377238
0.455764
0.484689
0.493541
0.477089
0.448471
0.412989
0.374325
0.334516
0.294651
0.254117
0.215735
0.162684
0.191731
11.3748
10.6566
9.155
5.91495
1.79278
-2.3298
-4.85358
-5.40581
-4.6476
-3.52098
-2.44335
-1.55492
-0.884654
-0.406868
-0.0809835
0.133414
0.267385
0.343402
0.379605
0.390234
0.381923
0.363086
0.337667
0.308581
0.277652
0.24583
0.212585
0.179776
0.134109
0.144577
8.60776
7.90351
6.46342
3.68409
0.622209
-2.10251
-3.68099
-4.02323
-3.53359
-2.76663
-1.99681
-1.33534
-0.816471
-0.432764
-0.161172
0.0242571
0.145615
0.219884
0.261027
0.278627
0.280372
0.272079
0.25721
0.238278
0.216867
0.193809
0.168713
0.142547
0.105678
0.100568
6.90863
6.15427
4.69016
2.3233
0.0220028
-1.82525
-2.84952
-3.07238
-2.75446
-2.22967
-1.68018
-1.18985
-0.790495
-0.483586
-0.257107
-0.0957034
0.0157681
0.0895206
0.135724
0.161958
0.174104
0.176676
0.17269
0.164293
0.152865
0.139168
0.12302
0.104588
0.078083
0.0614628
6.05587
5.2124
3.69729
1.69828
-0.0663091
-1.3904
-2.12573
-2.32339
-2.15336
-1.81937
-1.44432
-1.09243
-0.792306
-0.550409
-0.363227
-0.222675
-0.11941
-0.0453633
0.0064042
0.0414224
0.0640029
0.0775937
0.0846639
0.0870258
0.0859045
0.0820451
0.075578
0.0659601
0.0515428
0.0284108
5.81071
4.88107
3.37524
1.7175
0.317077
-0.734669
-1.37296
-1.63417
-1.62326
-1.46572
-1.24712
-1.01883
-0.807813
-0.625552
-0.474947
-0.35385
-0.258138
-0.18358
-0.126171
-0.0824328
-0.0494788
-0.024867
-0.00671043
0.00649535
0.015857
0.0221607
0.0259877
0.0261876
0.0256763
0.00184739
5.92561
4.97867
3.62093
2.27365
1.09466
0.138885
-0.534222
-0.928949
-1.09954
-1.12197
-1.05772
-0.949771
-0.825857
-0.70248
-0.588259
-0.486789
-0.398919
-0.324186
-0.261436
-0.209237
-0.16613
-0.130659
-0.101539
-0.0775679
-0.0577335
-0.0411677
-0.0266593
-0.0158454
-0.00074488
-0.0187211
6.12991
5.32659
4.264
3.17542
2.11663
1.15829
0.380797
-0.185354
-0.552846
-0.762118
-0.856055
-0.871467
-0.837446
-0.775192
-0.69922
-0.618919
-0.540082
-0.466094
-0.398715
-0.338624
-0.285835
-0.239904
-0.200165
-0.165758
-0.135737
-0.109182
-0.0840587
-0.0622472
-0.0306082
-0.035615
6.15465
5.69807
4.97658
4.09752
3.12941
2.1603
1.28194
0.555291
0.00278517
-0.385204
-0.633635
-0.772103
-0.82941
-0.83046
-0.795079
-0.73813
-0.670235
-0.59866
-0.528123
-0.461476
-0.400237
-0.345011
-0.29575
-0.252017
-0.212902
-0.177522
-0.143101
-0.110865
-0.064236
-0.0516795
6.09842
5.89949
5.42794
4.71719
3.85079
2.91558
2.00074
1.18294
0.508135
-0.0101899
-0.380633
-0.623586
-0.76424
-0.827823
-0.836666
-0.808975
-0.75877
-0.696352
-0.628942
-0.561337
-0.496518
-0.436163
-0.380943
-0.330948
-0.285516
-0.243905
-0.203109
-0.163654
-0.105898
-0.0756838
38.3259
37.4186
37.2227
35.0659
20.6072
-2.34365
-28.3546
-27.0408
-18.2317
-10.9847
-6.47518
-3.65089
-1.86756
-0.745665
-0.0460245
0.3778
0.619278
0.7294
0.788715
0.766596
0.725481
0.674367
0.613447
0.54973
0.486905
0.426718
0.367359
0.319671
0.233912
0.366124
35.6008
34.6025
33.7055
29.8748
17.1063
-1.74164
-25.0446
-24.1969
-16.7016
-10.2518
-6.07504
-3.42464
-1.74113
-0.679265
-0.0167382
0.384651
0.612925
0.717836
0.777759
0.752386
0.711344
0.660818
0.601133
0.538728
0.47719
0.418086
0.360273
0.311116
0.238493
0.333085
31.2316
30.1017
28.8197
25.6208
12.585
-5.76474
-19.1517
-20.0682
-14.3092
-9.03386
-5.43936
-3.0838
-1.5635
-0.59676
0.00897352
0.377109
0.58704
0.684043
0.7399
0.715455
0.678301
0.630431
0.573902
0.514829
0.456372
0.399962
0.344698
0.296463
0.228518
0.308518
25.9819
24.8534
23.0288
19.2308
9.46079
-4.62043
-14.1677
-15.2222
-11.4987
-7.59707
-4.69219
-2.69657
-1.37612
-0.523053
0.0169241
0.347908
0.538543
0.628895
0.681819
0.659333
0.628713
0.585409
0.533709
0.479644
0.425789
0.373426
0.321795
0.275694
0.211743
0.277377
20.7421
19.7854
17.9611
14.0408
6.45358
-3.77774
-9.94877
-10.9734
-8.78144
-6.0876
-3.88074
-2.27545
-1.1752
-0.448312
0.0187652
0.308571
0.477741
0.561849
0.610584
0.588472
0.56421
0.527105
0.481952
0.434408
0.386541
0.33948
0.29256
0.249629
0.190432
0.239849
16.0437
15.2783
13.6742
9.99243
4.10032
-2.91437
-7.04526
-7.85999
-6.51506
-4.68579
-3.08159
-1.85256
-0.976267
-0.380305
0.0105136
0.257164
0.40351
0.478127
0.510935
0.505125
0.487172
0.457321
0.420438
0.38072
0.340012
0.299354
0.258153
0.219367
0.16588
0.19848
12.1833
11.5675
10.2008
6.94574
2.47234
-2.24649
-5.11101
-5.76449
-4.95067
-3.71892
-2.55393
-1.60679
-0.899853
-0.400417
-0.0629042
0.156942
0.292657
0.367671
0.402359
0.409062
0.399338
0.3787
0.351299
0.320393
0.287777
0.254428
0.219843
0.186134
0.139405
0.155709
9.2675
8.73834
7.53309
4.73715
1.34165
-1.88654
-3.82857
-4.31197
-3.81082
-2.97282
-2.12764
-1.40559
-0.843795
-0.432045
-0.143992
0.0503706
0.175826
0.250852
0.290957
0.306149
0.305378
0.294421
0.276823
0.255265
0.231379
0.206036
0.178844
0.151108
0.112249
0.113849
7.26321
6.7506
5.59887
3.21559
0.627026
-1.61791
-2.93821
-3.28843
-2.97482
-2.40034
-1.78988
-1.24622
-0.806468
-0.472439
-0.229466
-0.0590258
0.0564109
0.130666
0.175336
0.198581
0.207293
0.206283
0.198688
0.186801
0.172063
0.155253
0.136128
0.11524
0.0854338
0.0749505
6.05816
5.5013
4.31581
2.2807
0.286111
-1.31491
-2.24454
-2.51878
-2.33895
-1.95714
-1.52667
-1.12589
-0.788634
-0.521787
-0.319239
-0.170708
-0.0646035
0.00880375
0.0578135
0.088771
0.10678
0.115665
0.118091
0.115997
0.110648
0.10276
0.0922977
0.0791176
0.0596472
0.0406304
5.49686
4.85654
3.60681
1.87449
0.310759
-0.890114
-1.60709
-1.87145
-1.8138
-1.59203
-1.31132
-1.03184
-0.783508
-0.576398
-0.411124
-0.283183
-0.186026
-0.113605
-0.0604999
-0.0222663
0.00471092
0.0233048
0.0356414
0.0433265
0.0474734
0.0487783
0.0474955
0.0428582
0.0351189
0.0119578
5.39903
4.67264
3.40763
1.95547
0.691749
-0.291787
-0.93482
-1.25526
-1.3313
-1.26113
-1.11804
-0.949615
-0.783248
-0.632537
-0.503084
-0.395286
-0.307146
-0.236056
-0.179254
-0.13418
-0.0985952
-0.0705593
-0.0485157
-0.031173
-0.0175466
-0.00691613
0.00138764
0.0060513
0.011508
-0.0106563
5.56803
4.81078
3.65189
2.45788
1.38198
0.480244
-0.189627
-0.620375
-0.84888
-0.933824
-0.927
-0.86729
-0.781521
-0.68683
-0.593277
-0.506062
-0.427493
-0.358314
-0.298344
-0.246914
-0.203138
-0.166005
-0.134548
-0.107788
-0.084849
-0.0649563
-0.0468613
-0.0323236
-0.012325
-0.0276665
5.78139
5.12967
4.21051
3.23595
2.26616
1.3679
0.616008
0.0449464
-0.348445
-0.593594
-0.725487
-0.776372
-0.773047
-0.735936
-0.679701
-0.61434
-0.546396
-0.480003
-0.417595
-0.360433
-0.30901
-0.263268
-0.222841
-0.187094
-0.155238
-0.126471
-0.0987945
-0.0741771
-0.0390334
-0.041227
5.81993
5.44821
4.81583
4.02172
3.13339
2.23196
1.40104
0.699102
0.1514
-0.245782
-0.511614
-0.671184
-0.7501
-0.771272
-0.75349
-0.711228
-0.655121
-0.592667
-0.52892
-0.467095
-0.409062
-0.355741
-0.30735
-0.26367
-0.223961
-0.187472
-0.151546
-0.117492
-0.0688652
-0.0540042
5.78156
5.61641
5.19559
4.54623
3.74705
2.87829
2.02088
1.24554
0.596559
0.0894518
-0.280867
-0.531158
-0.683424
-0.760398
-0.782687
-0.767444
-0.728127
-0.67482
-0.614745
-0.55283
-0.492246
-0.434877
-0.3816
-0.332679
-0.287611
-0.245775
-0.204329
-0.163882
-0.105511
-0.0740747
26.9501
25.7993
23.9744
20.1324
11.514
-5.22538
-14.1111
-16.3173
-11.627
-7.58254
-4.73974
-2.74279
-1.40509
-0.535978
0.0174794
0.357985
0.554971
0.650759
0.679378
0.683886
0.649056
0.603237
0.550343
0.494555
0.438875
0.384897
0.330911
0.285398
0.206752
0.300486
25.1951
24.0362
22.0267
17.7551
9.57962
-5.00042
-12.7613
-14.7481
-10.8099
-7.12517
-4.46504
-2.58631
-1.31904
-0.492554
0.0342866
0.35839
0.545474
0.635875
0.661837
0.665702
0.632817
0.588173
0.536766
0.482555
0.428387
0.375697
0.323363
0.277022
0.20939
0.273141
22.3711
21.2633
19.3264
14.9915
7.15945
-3.73485
-11.1741
-12.388
-9.43692
-6.39216
-4.05742
-2.36972
-1.21452
-0.453586
0.0344642
0.33628
0.511447
0.59684
0.621753
0.625885
0.596947
0.5559
0.50812
0.457497
0.406641
0.356883
0.30733
0.262425
0.199441
0.251833
18.9098
17.9136
16.0314
11.9793
5.15824
-3.19893
-8.93142
-9.87974
-7.86804
-5.51031
-3.56991
-2.11958
-1.10445
-0.424646
0.0166364
0.292662
0.455032
0.536268
0.561881
0.567583
0.544385
0.508797
0.466386
0.421014
0.375002
0.329561
0.283952
0.241756
0.183252
0.224629
15.3858
14.5793
12.925
9.24262
3.67466
-2.70918
-6.7916
-7.61889
-6.33325
-4.59905
-3.06268
-1.86662
-1.00376
-0.411966
-0.020876
0.228236
0.378043
0.456484
0.485336
0.494139
0.477634
0.448971
0.413448
0.374744
0.334895
0.294988
0.254405
0.21597
0.162848
0.191865
12.1807
11.5647
10.1975
6.94149
2.46711
-2.25458
-5.11855
-5.77046
-4.95424
-3.72068
-2.55459
-1.6068
-0.899545
-0.399982
-0.0624413
0.157388
0.293069
0.368047
0.402701
0.409378
0.399628
0.378966
0.351544
0.320617
0.287979
0.254608
0.219997
0.186259
0.139493
0.15578
9.52186
9.05408
7.93432
5.13986
1.62323
-1.80197
-3.88206
-4.42198
-3.91673
-3.05074
-2.17706
-1.43271
-0.855291
-0.433319
-0.139281
0.0582988
0.185237
0.260496
0.300278
0.314433
0.313227
0.301543
0.283098
0.260718
0.236048
0.209978
0.182125
0.153916
0.114469
0.118548
7.50611
7.12631
6.16054
3.79023
1.0396
-1.45324
-2.96522
-3.40447
-3.10169
-2.50223
-1.85847
-1.28509
-0.822546
-0.47286
-0.220273
-0.0444094
0.0736821
0.148652
0.192905
0.21494
0.222315
0.219756
0.210538
0.197065
0.180809
0.162573
0.142103
0.120164
0.0889811
0.0822391
6.13214
5.77541
4.85872
2.84313
0.685796
-1.14772
-2.2582
-2.6204
-2.45574
-2.05302
-1.5906
-1.15942
-0.797763
-0.513997
-0.300752
-0.14621
-0.0374031
0.0364256
0.084448
0.113518
0.129286
0.135763
0.135749
0.131276
0.123649
0.113587
0.100994
0.0860008
0.0640258
0.0486968
5.3348
4.94377
3.99412
2.26722
0.560813
-0.817687
-1.66333
-1.98395
-1.92697
-1.67869
-1.36384
-1.05264
-0.779502
-0.555252
-0.3791
-0.245426
-0.146203
-0.0742114
-0.023089
0.0122357
0.0359103
0.0510813
0.0600345
0.0644619
0.0654973
0.0638022
0.0594776
0.0520617
0.0402792
0.0193885
5.0089
4.54431
3.52925
2.04828
0.679043
-0.402571
-1.09753
-1.42012
-1.46476
-1.35014
-1.16303
-0.957599
-0.763856
-0.59459
-0.454022
-0.340988
-0.251732
-0.182269
-0.128768
-0.0879209
-0.0569257
-0.033513
-0.0159367
-0.00283358
0.00677489
0.0135203
0.0177724
0.0185227
0.0179863
-0.00470627
5.02244
4.47617
3.43208
2.17766
1.05034
0.138435
-0.501516
-0.872269
-1.02757
-1.04108
-0.973131
-0.86619
-0.746999
-0.630634
-0.524924
-0.432631
-0.353845
-0.2876
-0.232423
-0.18673
-0.148997
-0.117825
-0.0920237
-0.0705483
-0.0525598
-0.0374218
-0.0243874
-0.0149545
-0.00314825
-0.0232034
5.22314
4.63715
3.66574
2.6223
1.65171
0.80923
0.150364
-0.308471
-0.588573
-0.732668
-0.782483
-0.77193
-0.72612
-0.662282
-0.591533
-0.520485
-0.452827
-0.390499
-0.334315
-0.284401
-0.240488
-0.202046
-0.168456
-0.138988
-0.112927
-0.0896095
-0.0677641
-0.0492914
-0.0241663