/*--------------------------------*- C++ -*----------------------------------*\
  =========                 |
  \\      /  F ield         | OpenFOAM: The Open Source CFD Toolbox
   \\    /   O peration     | Website:  https://openfoam.org
    \\  /    A nd           | Version:  7
     \\/     M anipulation  |
\*---------------------------------------------------------------------------*/
FoamFile
{
    version     2.0;
    format      ascii;
    class       surfaceScalarField;
    location    "400";
    object      phi;
}
// * * * * * * * * * * * * * * * * * * * * * * * * * * * * * * * * * * * * * //

dimensions      [0 3 -1 0 0 0 0];

internalField   nonuniform List<scalar> 
81175
(
525.054
8.76049
8.72122
113.18
32.2457
32.1275
115.168
115.324
117.009
93.5164
9.8438
9.8195
-14.6345
3.03794
3.45972
1.99903
2.18305
1.71139
2.24337
2.29668
-0.64013
-0.756974
-0.899573
-5.83585
-1.10876
-1.17625
8.12085
-14.0482
15.6876
-0.810076
-0.829324
-19.7168
20.8053
-0.541325
-0.547124
-23.4741
24.1991
-0.361451
-0.36353
-25.9966
26.492
-0.247216
-0.248137
-27.7388
28.0879
-0.174323
-0.174829
-28.9798
29.2334
-0.126615
-0.126945
-29.8897
30.0788
-0.0944103
-0.0946546
-30.5765
123.458
-0.552472
-0.553987
-30.5879
-30.5879
-30.5993
504.714
-3.15512
-3.16485
-124.461
-124.599
-124.599
-124.735
509.851
-2.56383
-2.57244
514.05
-2.09564
-2.10336
517.522
-1.73284
-1.73984
520.426
-1.44852
-1.45491
522.877
-1.22275
-1.22863
524.964
-1.0409
-1.04633
526.754
-0.892416
-0.897434
528.287
-0.764044
-0.768692
529.622
-0.665086
-0.669399
-0.522271
-0.526323
529.709
14.4433
7.59937
118.567
50.6905
27.1085
122.254
120.051
123.284
-17.9314
104.563
23.6195
8.31536
-11.0158
-19.658
13.0944
2.57159
3.89412
3.58308
3.63157
3.8991
-2.37957
3.78888
-5.49487
-1.02781
5.11338
-12.0659
4.19771
-1.03013
-4.95065
13.849
2.85106
-18.0927
19.2317
-3.29961
-0.690534
1.91582
-22.0612
22.8449
-2.23574
-0.463778
1.30816
-24.8256
25.3816
-1.54621
-0.317938
0.91412
-26.8005
27.2026
-1.09299
-0.223245
0.655525
-28.238
28.5343
-0.79097
-0.160786
0.482139
-29.304
29.5264
-0.585797
-0.118679
0.362831
-30.1093
30.2793
-0.443258
-0.0895922
-30.7393
1.07491
124.089
-1.55236
-0.525838
-30.7932
-30.7499
-30.8035
506.847
-5.8419
-2.99237
-125.039
-125.42
-125.168
-125.54
511.515
-4.78472
-2.44713
515.377
-3.94536
-2.0118
518.599
-3.28355
-1.6717
521.314
-2.75973
-1.40334
523.62
-2.34058
-1.18898
525.596
-2.00066
-1.01547
527.297
-1.72048
-0.873144
528.763
-1.48079
-0.749902
530.031
-1.27775
-0.655378
-1.05084
-0.513031
535.602
16.5543
6.0275
126.056
54.531
20.0227
129.141
126.848
129.694
-26.3317
119.549
26.9677
5.87063
-14.8847
-27.0659
25.359
14.7919
1.79969
-0.186939
0.8766
-0.74637
0.0580522
-19.5477
8.91251
-8.70913
-1.01914
20.3634
5.70814
-22.1247
-0.649223
22.6431
-5.57729
3.87349
-24.0916
24.5379
-3.86793
-0.451835
2.75035
-25.7698
26.145
-2.80036
-0.325176
1.99523
-27.1695
27.4787
-2.06655
-0.237928
1.4697
-28.3169
28.5682
-1.54457
-0.176471
1.09934
-29.2463
29.4489
-1.16919
-0.132763
0.835412
-29.9947
30.1576
-0.897003
-0.101371
0.644901
-30.5969
30.7285
-0.6979
-0.078567
-31.0995
1.95346
125.38
-2.28976
-0.469086
-31.1791
-31.1084
-31.1875
510.638
-7.77311
-2.69315
-126.188
-126.715
-126.297
-126.814
514.526
-6.44712
-2.22611
517.808
-5.37904
-1.84824
520.594
-4.52115
-1.54865
522.975
-3.83135
-1.30922
525.023
-3.27245
-1.11599
526.795
-2.81443
-0.958228
528.336
-2.43316
-0.827863
529.675
-2.1059
-0.714452
530.846
-1.82171
-0.627096
-1.52215
-0.493558
540.839
16.2542
4.58653
530.973
50.171
14.2262
129.682
97.4207
28.5548
-26.4713
-35.9779
-25.5989
-34.5273
133.614
130.444
133.834
-53.7849
131.703
44.3982
7.36515
-23.4078
-34.0449
36.1838
19.4484
1.82066
4.65833
-4.72369
0.0655313
12.0784
-29.0633
28.4831
-10.5172
-0.980915
7.00808
-27.8313
-0.530286
27.7582
-6.40472
4.80299
-27.7932
27.8637
-4.50757
-0.365933
3.56107
-28.1742
28.2997
-3.41127
-0.275322
2.7269
-28.7063
28.8477
-2.65529
-0.212975
2.11325
-29.2776
29.4192
-2.08856
-0.166294
1.64764
-29.8343
29.967
-1.64991
-0.130461
1.29223
-30.3473
30.4667
-1.30871
-0.102868
1.02068
-30.8038
30.9084
-1.04357
-0.0816281
0.81322
-31.2011
31.2913
-0.838207
-0.0652757
-31.5613
2.53593
127.02
-2.72248
-0.399386
-31.649
-31.5682
-31.6555
515.394
-8.90645
-2.33045
-127.652
-128.23
-127.74
-128.308
518.393
-7.49438
-1.95213
520.993
-6.33733
-1.64135
523.251
-5.38902
-1.39034
525.219
-4.6124
-1.18633
526.939
-3.9736
-1.01947
528.45
-3.44354
-0.881708
529.781
-2.99746
-0.766813
530.953
-2.61194
-0.666161
531.993
-2.27263
-0.588207
-1.91988
-0.467706
544.531
14.5775
3.37011
541.905
42.9354
9.86154
136.192
75.2137
17.6281
136.955
136.318
137.02
-36.352
138.395
30.3604
3.78804
-49.1286
149.499
37.6513
4.86185
-142.883
-10.8929
-39.625
40.9097
0.582561
9.02569
-0.379328
-43.0195
42.4287
-0.0814024
1.05147
6.91329
-37.9078
141.262
-16.0727
-2.41574
7.20639
6.77313
7.10689
-37.9743
-37.4489
-37.4421
6.3753
-134.034
129.482
-17.6614
-2.40513
6.29749
6.00895
5.93721
4.71312
-126.669
125.089
-14.764
-1.88989
4.44385
4.67103
4.40675
3.62313
-124.15
123.675
-12.1328
-1.50322
3.4565
3.59801
3.43411
2.90289
-123.463
123.447
-10.0984
-1.22679
2.78365
2.88602
2.76836
2.36403
-123.576
123.802
-8.46394
-1.01363
2.27311
2.35187
2.26194
1.93551
-124.112
124.472
-7.09731
-0.840233
1.86198
1.92671
1.85384
1.58476
-124.88
125.305
-5.93661
-0.695943
1.52502
1.57842
1.51911
1.29725
-125.755
126.201
-4.95366
-0.575786
1.24889
1.29269
1.24461
1.06286
-126.656
127.093
-4.12797
-0.476393
1.02377
1.05957
1.02067
0.872789
-127.529
127.941
-3.44175
-0.395001
0.841891
0.870416
0.839616
2.82695
-128.35
128.738
-2.88479
-0.329576
520.494
-9.34936
-1.95835
-129.206
-129.774
-129.275
-129.837
522.65
-7.98632
-1.66427
524.577
-6.84488
-1.41909
526.298
-5.89305
-1.21694
527.833
-5.09824
-1.04943
529.204
-4.43379
-0.910354
530.429
-3.87508
-0.794084
531.528
-3.39962
-0.696149
532.511
-2.98548
-0.609697
533.398
-2.61746
-0.542436
-2.23357
-0.436943
546.761
12.2667
2.40263
547.612
35.2623
6.82182
553.614
57.9401
11.2721
568.579
76.1788
15.0179
-25.5178
-28.2812
-24.8423
-27.5207
148.054
78.4334
15.6111
-29.7807
-27.8381
-28.8904
-27.0468
146.177
147.83
146.028
-22.4623
150.387
18.329
1.80035
-4.99918
-150.838
149.204
6.13299
0.500426
556.478
-11.3326
-3.73503
8.95859
11.086
8.36785
10.5091
-145.873
-144.466
-145.67
-144.323
538.431
-24.2198
-5.80664
12.4576
12.0297
11.9552
11.6306
527.739
-28.0613
-5.98513
11.7165
10.9532
11.3811
10.6873
521.904
-27.8362
-5.57939
10.2544
9.58251
10.0222
9.39232
518.964
-26.0238
-5.02061
8.85565
8.29393
8.68454
8.14931
517.776
-23.6564
-4.4478
7.62225
7.14489
7.49271
7.03273
517.722
-21.1594
-3.90236
6.52987
6.12134
6.43032
6.03472
518.395
-18.7047
-3.39765
5.5687
5.21691
5.4926
5.15044
519.528
-16.3936
-2.94021
4.7278
4.42731
4.66992
4.37656
520.922
-14.2752
-2.53329
4.00085
3.74723
3.95697
3.70853
522.442
-12.3783
-2.17818
3.38014
3.16961
3.34692
3.14032
524.008
-10.7062
-1.87123
2.85851
2.67667
2.83174
2.6448
525.519
-9.25094
-1.60998
526.946
-8.02322
-1.38949
528.276
-6.97234
-1.20246
529.504
-6.07717
-1.04441
530.632
-5.3149
-0.910807
531.663
-4.66733
-0.798135
532.607
-4.11563
-0.702742
533.47
-3.6412
-0.621629
534.259
-3.22498
-0.549534
534.987
-2.85249
-0.493284
-2.45924
-0.40353
547.908
9.85493
1.6746
550.326
28.16
4.68376
555.895
44.945
7.42587
565.558
57.0805
9.4355
576.147
58.2565
9.58782
579.503
43.9812
6.80353
-15.4447
-11.8333
-15.1756
-11.6874
573.026
22.0004
2.94159
-6.43455
-2.74639
-6.42546
-2.85863
560.464
1.79408
-0.564565
548.981
-10.3643
-2.37251
540.469
-16.4387
-3.11086
534.768
-18.8424
-3.29285
531.155
-19.2073
-3.20318
529.013
-18.5204
-2.99405
527.887
-17.2986
-2.73503
527.473
-15.8291
-2.46178
527.555
-14.2833
-2.19224
527.974
-12.7572
-1.93714
528.612
-11.3134
-1.70285
529.379
-9.98095
-1.49169
530.215
-8.78187
-1.30573
531.064
-7.727
-1.14447
531.899
-6.80323
-1.0043
532.705
-5.99973
-0.883305
533.472
-5.30274
-0.779117
534.196
-4.70161
-0.689908
534.877
-4.18325
-0.613474
535.517
-3.7335
-0.547954
536.119
-3.3369
-0.48944
536.691
-2.98062
-0.44377
-2.59767
-0.369569
548.347
7.63457
1.15163
551.235
22.0578
3.21437
556.19
34.9843
5.00546
563.112
43.948
6.2107
569.853
45.2064
6.30852
572.372
36.5947
4.86736
569.213
22.4401
2.71919
562.178
8.19904
0.630693
554.632
-2.09032
-0.728404
548.206
-8.51076
-1.50143
543.286
-12.0491
-1.87342
539.744
-13.6647
-2.0005
537.292
-14.0811
-1.988
535.665
-13.7722
-1.89879
534.662
-13.0564
-1.7695
534.12
-12.1197
-1.6217
533.917
-11.0858
-1.46888
533.959
-10.0355
-1.31952
534.173
-9.01651
-1.17831
534.503
-8.06291
-1.04933
534.902
-7.19279
-0.933464
535.341
-6.4113
-0.830278
535.797
-5.71711
-0.739331
536.258
-5.10409
-0.659579
536.715
-4.56787
-0.590295
537.162
-4.10056
-0.530292
537.6
-3.6924
-0.478536
538.027
-3.33182
-0.432262
538.451
-3.00851
-0.396253
-2.65263
-0.33676
548.395
5.72758
0.786112
551.236
16.9991
2.21737
555.515
27.2565
3.44902
560.828
34.3764
4.25865
565.721
35.9388
4.37451
567.95
30.7643
3.60167
566.662
21.3683
2.35954
562.675
11.1322
1.05411
557.76
2.75787
0.0669097
553.066
-3.21885
-0.5984
549.086
-7.06972
-0.999455
545.912
-9.28019
-1.21041
543.495
-10.3679
-1.2963
541.702
-10.6753
-1.30346
540.41
-10.5024
-1.26197
539.513
-10.0308
-1.19218
538.924
-9.3897
-1.10747
538.572
-8.66686
-1.01671
538.401
-7.91963
-0.925548
538.364
-7.18811
-0.838112
538.424
-6.49586
-0.756575
538.552
-5.85729
-0.682002
538.728
-5.27784
-0.614797
538.935
-4.7572
-0.554758
539.165
-4.29579
-0.501864
539.41
-3.89011
-0.455621
539.668
-3.53452
-0.415581
539.938
-3.22138
-0.379933
540.226
-2.94397
-0.352398
-2.62925
-0.30637
548.245
4.14597
0.536914
550.814
12.8825
1.54765
554.482
21.1535
2.4353
558.796
27.0323
3.03013
562.739
28.8239
3.17155
564.937
25.8062
2.76065
564.801
19.4886
2.01531
562.694
12.0686
1.17072
559.589
5.40577
0.456568
556.261
0.192926
-0.0836414
553.15
-3.50459
-0.45403
550.481
-5.92453
-0.686189
548.257
-7.32746
-0.817045
546.477
-8.01854
-0.876706
545.076
-8.21322
-0.888335
543.994
-8.07991
-0.868699
543.174
-7.74012
-0.829622
542.567
-7.2802
-0.77941
542.131
-6.75979
-0.723763
541.831
-6.22131
-0.666817
541.637
-5.69087
-0.611143
541.526
-5.18735
-0.558482
541.478
-4.72036
-0.50977
541.48
-4.29353
-0.465354
541.52
-3.91068
-0.425654
541.592
-3.57177
-0.390653
541.693
-3.27486
-0.360303
541.821
-3.01615
-0.333608
541.985
-2.79405
-0.313251
-2.53251
-0.279257
547.991
2.8862
0.369929
550.206
9.56442
1.10242
553.359
16.2284
1.7726
557.035
21.1157
2.24025
560.492
22.9692
2.39795
562.787
21.3219
2.18943
563.433
17.1113
1.73131
562.58
11.7529
1.16906
560.751
6.58637
0.64775
558.486
2.24085
0.217205
556.158
-1.06998
-0.106352
553.961
-3.39489
-0.33304
552.018
-4.9037
-0.480552
550.348
-5.78089
-0.567867
548.944
-6.19781
-0.61149
547.782
-6.29318
-0.624322
546.831
-6.17309
-0.616176
546.062
-5.91624
-0.594359
545.445
-5.57932
-0.564191
544.957
-5.20354
-0.529662
544.575
-4.81523
-0.493409
544.28
-4.4346
-0.457458
544.056
-4.07331
-0.423057
543.89
-3.73734
-0.390896
543.774
-3.43259
-0.361672
543.699
-3.16157
-0.335697
543.663
-2.92556
-0.313178
543.665
-2.72429
-0.293836
543.714
-2.56351
-0.279351
-2.36587
-0.255924
547.703
1.9039
0.258668
549.56
6.89767
0.810137
552.301
12.147
1.34054
555.575
16.1115
1.73003
558.789
17.8594
1.8959
561.214
17.0937
1.80271
562.449
14.3596
1.51735
562.479
10.5896
1.13324
561.608
6.7115
0.746012
560.177
3.26967
0.402378
558.49
0.492742
0.123647
556.759
-1.57653
-0.0876926
555.105
-3.01018
-0.238737
553.59
-3.92593
-0.340396
552.242
-4.44555
-0.403659
551.062
-4.67604
-0.438053
550.045
-4.70397
-0.451421
549.175
-4.59614
-0.449968
548.436
-4.40246
-0.438476
547.813
-4.16001
-0.420667
547.291
-3.89328
-0.399144
546.854
-3.6216
-0.376025
546.49
-3.35691
-0.352735
546.189
-3.10621
-0.330181
545.942
-2.87633
-0.309234
545.742
-2.67139
-0.29044
545.586
-2.49537
-0.274147
545.473
-2.35079
-0.260722
545.414
-2.25347
-0.250843
-2.12969
-0.23659
547.405
1.15465
0.182904
548.948
4.73467
0.619827
551.393
8.63862
1.06351
554.436
11.6643
1.40484
557.544
13.1765
1.57503
560.133
12.9535
1.55074
561.82
11.2999
1.3729
562.509
8.79699
1.10391
562.353
6.05741
0.80931
561.596
3.49701
0.530166
560.464
1.33615
0.288692
559.144
-0.350209
0.0932687
557.77
-1.57944
-0.0567338
556.427
-2.416
-0.166523
555.163
-2.93901
-0.2429
554.004
-3.22444
-0.292655
552.959
-3.33733
-0.321901
552.029
-3.32992
-0.335816
551.208
-3.24249
-0.338628
550.487
-3.10568
-0.33377
549.858
-2.94028
-0.323774
549.31
-2.763
-0.310774
548.834
-2.58465
-0.296301
548.421
-2.41209
-0.281409
548.064
-2.25201
-0.267084
547.756
-2.10918
-0.254049
547.493
-1.98955
-0.242691
547.273
-1.89705
-0.233987
547.107
-1.85972
-0.22751
-1.81837
-0.221212
547.162
0.591537
0.126307
548.458
2.94028
0.498688
550.694
5.50786
0.895051
553.587
7.56274
1.20872
556.666
8.71296
1.38407
559.42
8.79418
1.40512
561.484
7.93814
1.29774
562.711
6.46581
1.10491
563.148
4.74515
0.874381
562.949
3.05513
0.64099
562.293
1.56596
0.426778
561.344
0.35505
0.243175
560.237
-0.566245
0.0937753
559.069
-1.22523
-0.0226607
557.906
-1.66585
-0.109824
556.789
-1.93508
-0.172322
555.742
-2.07576
-0.21483
554.778
-2.1238
-0.241643
553.899
-2.10776
-0.256493
553.106
-2.04989
-0.262559
552.394
-1.96568
-0.262305
551.756
-1.86778
-0.257867
551.187
-1.76461
-0.250852
550.68
-1.66189
-0.242439
550.226
-1.56511
-0.233692
549.821
-1.47863
-0.225493
549.459
-1.40932
-0.218177
549.136
-1.36028
-0.213332
548.855
-1.3698
-0.209109
-1.41281
-0.209712
547.011
0.198073
0.0729598
548.127
1.39099
0.433133
550.2
2.62592
0.809595
552.973
3.67734
1.11224
556.047
4.33945
1.29966
558.972
4.51023
1.35821
561.389
4.21859
1.30243
563.101
3.5916
1.16295
564.076
2.79346
0.976233
564.396
1.96252
0.772918
564.192
1.19445
0.575053
563.609
0.542097
0.396266
562.776
0.0236111
0.243266
561.798
-0.365404
0.117816
560.755
-0.641051
0.0186079
559.701
-0.824042
-0.0572392
558.673
-0.935069
-0.113247
557.695
-0.992455
-0.153
556.778
-1.01134
-0.179832
555.929
-1.00385
-0.196723
555.148
-0.978715
-0.206102
554.434
-0.943131
-0.210119
553.782
-0.902014
-0.210455
553.187
-0.858926
-0.208422
552.644
-0.817149
-0.205136
552.147
-0.779428
-0.201639
551.687
-0.751265
-0.198191
551.257
-0.734062
-0.196781
550.843
-0.761526
-0.194239
-0.862208
-0.200935
546.948
0.0328363
547.936
0.403184
549.78
0.781673
552.36
1.09732
555.381
1.3183
558.464
1.42786
561.253
1.42957
563.501
1.34284
565.099
1.19556
566.046
1.01525
566.416
0.824672
566.318
0.64036
565.869
0.472732
565.176
0.327052
564.33
0.204932
563.4
0.105622
562.438
0.0269771
561.48
-0.0337845
560.548
-0.0796019
559.657
-0.113316
558.816
-0.137428
558.027
-0.154195
557.291
-0.165483
556.605
-0.172821
555.965
-0.177502
555.366
-0.180761
554.798
-0.18295
554.25
-0.186278
553.675
-0.186859
-0.196988
529.76
7.60378
14.365
118.679
27.1241
50.485
120.068
122.268
123.264
-17.8068
104.754
8.28393
23.4482
-11.1981
-19.8983
2.68592
12.971
3.9648
3.7631
3.75611
3.95539
-2.64272
4.31922
-1.02373
-6.04345
5.39068
-12.2128
4.37426
-1.00616
-5.11178
13.9565
2.90352
-18.1316
19.2593
-0.680266
-3.3509
1.93345
-22.0711
22.852
-0.459961
-2.25438
1.31511
-24.8282
25.3835
-0.316373
-1.55401
0.917424
-26.8013
27.2032
-0.222483
-1.09686
0.657421
-28.2383
28.5345
-0.160343
-0.793248
0.48341
-29.3041
29.5264
-0.118379
-0.587348
0.363783
-30.1093
30.2793
-0.0893648
-0.44443
-30.7393
1.0779
124.089
-0.524419
-1.55675
-30.7499
-30.7932
-30.8035
506.847
-2.98329
-5.86065
-125.039
-125.168
-125.42
-125.54
511.515
-2.43902
-4.80141
515.376
-2.00449
-3.96039
518.599
-1.66504
-3.29722
521.313
-1.39723
-2.77226
523.62
-1.18335
-2.35212
525.595
-1.01026
-2.01132
527.297
-0.868311
-1.73035
528.763
-0.745418
-1.48994
530.031
-0.651211
-1.28625
-0.509114
-1.05883
533.223
12.7869
12.7597
122.433
43.7956
43.7257
125.152
125.138
127.212
-15.3001
-15.3207
112.384
20.3573
20.313
-9.46978
-9.54602
-23.228
19.9904
11.1391
11.1143
-9.91103
4.74
4.72329
-5.94908
-5.97967
12.3765
-17.0854
3.65148
3.59502
-4.16661
-4.21717
18.2226
2.4266
2.39879
-21.0107
21.7898
-2.78846
-2.81611
1.66003
1.64826
-23.7996
24.3774
-1.93679
-1.94938
1.16228
1.15698
-25.8854
26.322
-1.37492
-1.38092
0.831142
0.828389
-27.465
27.7969
-0.994093
-0.997334
0.607279
0.605608
-28.6686
28.9227
-0.732462
-0.734477
0.453194
0.452034
-29.5928
29.7891
-0.550056
-0.551475
0.344933
0.344044
-30.3098
30.4633
-0.420715
-0.421809
-30.8897
1.02377
1.02097
124.672
-1.4769
-1.48102
-30.9401
-30.9401
-30.9888
508.821
-5.53986
-5.5574
-125.574
-125.93
-125.93
-126.264
513.073
-4.56133
-4.57707
516.631
-3.77981
-3.79407
519.625
-3.15896
-3.17199
522.165
-2.66444
-2.67642
524.337
-2.26672
-2.27778
526.207
-1.94277
-1.95303
527.825
-1.67471
-1.68422
529.229
-1.44505
-1.45388
530.428
-1.24888
-1.25709
-1.03219
-1.03991
537.802
14.9736
10.3708
128.095
48.1873
33.537
130.515
129.641
131.646
-22.9271
-10.9121
123.404
23.7504
14.7796
-6.32613
-13.0475
51.7643
32.8811
27.6466
29.1549
28.4655
29.9225
-15.4151
-12.3084
-14.4792
-118.707
-7.2731
-5.60446
-6.67378
-4.93078
-7.25797
-6.79529
5.25725
9.44338
4.28315
0.956163
1.88107
-2.64847
3.70658
-2.63275
-1.26275
-22.6999
7.4115
3.51171
-7.2249
-4.0661
23.0677
2.3087
4.81536
-24.0863
-2.69888
24.427
-4.76587
1.63304
3.361
-25.4374
25.7629
-3.39235
-1.9272
1.19366
2.44179
-26.6938
26.9862
-2.50695
-1.42093
0.886041
1.80683
-27.8054
28.0585
-1.88282
-1.06315
0.665347
1.35358
-28.7579
28.9715
-1.42863
-0.803837
0.505663
1.0266
-29.5563
29.7335
-1.09506
-0.614396
0.389263
0.788848
-30.2163
30.3621
-0.848737
-0.475152
0.303604
0.614428
-30.7588
30.8786
-0.665843
-0.372051
-31.2254
0.914821
1.86186
125.872
-2.18765
-1.32726
-31.3004
-31.2677
-31.3405
512.348
-7.39976
-5.02569
-126.644
-127.141
-126.95
-127.419
515.905
-6.16479
-4.17971
518.938
-5.16514
-3.49528
521.532
-4.35721
-2.94469
523.763
-3.70399
-2.50092
525.693
-3.1724
-2.14054
527.372
-2.73512
-1.84462
528.838
-2.36989
-1.59804
530.12
-2.05585
-1.38574
531.228
-1.78127
-1.20334
-1.49558
-1.00112
542.124
14.8944
8.03523
534.713
45.3326
24.4914
131.878
85.6314
46.8957
134.566
133.173
135.079
-23.3541
-31.1855
-21.394
-28.0217
-45.1122
-13.3863
38.4305
17.9507
33.2173
33.3669
33.8355
33.5753
-5.83205
-19.0979
-34.941
36.9157
16.3203
6.6351
0.680309
-4.4567
-16.6451
11.9601
5.63736
2.82452
2.62309
6.59018
-13.4732
9.88202
-4.09496
-1.52719
9.97265
-30.4033
3.0998
29.6457
-8.7522
-3.56265
1.90063
6.05695
-28.6852
-2.24029
28.5663
-5.59842
1.34682
4.26534
-28.4999
28.538
-4.04471
-1.60558
1.02413
3.21884
-28.7507
28.8415
-3.10549
-1.22831
0.799295
2.49627
-29.1591
29.2729
-2.44595
-0.963431
0.629344
1.95742
-29.6276
29.7469
-1.94381
-0.762185
0.497511
1.5423
-30.1022
30.2175
-1.54995
-0.605141
0.3949
1.22071
-30.5519
30.658
-1.23955
-0.482158
0.31514
0.971676
-30.9606
31.0552
-0.995417
-0.386025
0.253157
0.779272
-31.3223
31.4052
-0.804358
-0.311016
-31.6598
0.780075
2.42805
127.412
-2.61315
-1.13575
-31.7433
-31.6931
-31.7746
516.81
-8.51313
-4.37257
-128.021
-128.572
-128.269
-128.793
519.565
-7.18938
-3.68238
521.974
-6.10062
-3.11458
524.081
-5.20366
-2.65057
525.927
-4.46575
-2.2708
527.55
-3.85658
-1.95848
528.982
-3.34949
-1.69936
530.249
-2.92154
-1.4816
531.371
-2.55116
-1.2929
532.354
-2.22313
-1.12986
-1.88686
-0.947399
545.149
13.5037
5.99858
543.366
39.5186
17.4594
136.564
68.1754
30.3879
137.207
136.772
137.519
-32.1993
138.596
27.4808
9.80485
-7.11817
-42.4392
-9.02463
148.537
33.4594
12.182
-142.715
-9.13818
-1.94728
-155.167
25.2865
9.26004
-7.79105
-8.67834
-7.32879
-1.76527
-1.77523
-1.46817
40.8022
40.4038
39.753
39.5537
-0.943381
-0.242391
-41.4122
40.9621
0.327679
1.30814
5.54683
4.22448
-149.516
141.381
-12.7847
-5.27198
5.89263
5.09214
5.43556
5.48014
-134.972
4.4256
130.785
-15.2086
-5.82949
5.18364
5.19904
4.93642
4.2176
3.56395
-128.082
126.486
-13.2106
-4.87223
3.99568
4.05275
3.84962
3.31398
2.86664
-125.491
124.933
-11.0849
-3.99005
3.16874
3.20928
3.07375
2.68512
2.35238
-124.641
124.545
-9.33512
-3.30695
2.57937
2.61032
2.51104
2.20534
1.95176
-124.592
124.74
-7.88839
-2.76365
2.12308
2.15122
2.07287
1.81898
1.62395
-124.974
125.261
-6.66082
-2.31402
1.75173
1.77919
1.71484
1.49957
1.34973
-125.6
125.96
-5.60718
-1.93438
1.44435
1.47047
1.41738
1.23518
1.12021
-126.35
126.741
-4.70615
-1.61381
1.19001
1.21395
1.17035
1.01761
0.929437
-127.145
127.536
-3.94238
-1.34521
0.980775
1.00213
0.966423
0.839777
0.772291
-127.931
128.305
-3.30263
-1.1225
0.810455
0.828436
0.799901
2.71887
-128.682
0.643763
129.041
-2.7803
-0.941025
521.636
-8.9694
-3.69184
-129.496
-130.042
-129.692
-130.216
523.621
-7.68496
-3.15375
525.409
-6.60503
-2.70213
527.016
-5.70103
-2.32623
528.457
-4.94345
-2.01305
529.75
-4.3082
-1.75177
530.911
-3.77264
-1.53245
531.956
-3.31584
-1.34644
532.897
-2.91755
-1.18416
533.736
-2.56154
-1.04321
-2.19565
-0.883377
547.035
11.4625
4.32877
548.245
32.8607
12.2701
554.149
53.5602
19.9828
567.777
69.7297
26.0072
-23.2757
-25.6996
-21.6592
-23.7129
147.28
71.5889
26.8397
-26.8551
-25.1024
-24.8101
-23.2076
145.641
146.677
145.337
-20.4208
-3.44103
149.39
17.0127
4.73871
-5.30106
-1.01648
-149.673
148.326
6.16011
1.50408
557.341
-8.29472
-5.04178
7.15745
9.30114
5.99611
8.00857
-145.347
-144.126
-144.847
-143.883
540.764
-20.8252
-9.24799
10.8305
10.6511
9.6911
9.67078
530.496
-25.1137
-10.1296
10.5541
9.96074
9.73741
9.27408
524.632
-25.4174
-9.72401
9.4163
8.84441
8.82962
8.3352
521.51
-24.0527
-8.91201
8.22079
7.72753
7.77965
7.33906
520.103
-22.0501
-8.00267
7.12931
6.6996
6.78556
6.39747
519.802
-19.8453
-7.09693
6.14699
5.77325
5.88128
5.53858
520.234
-17.6426
-6.23562
5.2715
4.94629
5.06584
4.76501
521.137
-15.5379
-5.43979
4.49835
4.21795
4.34006
4.07858
522.322
-13.5896
-4.72106
3.82436
3.5857
3.70296
3.47879
523.654
-11.8306
-4.08499
3.24483
3.0457
3.15174
2.9635
525.06
-10.2719
-3.52653
2.75586
2.58057
2.68133
2.50336
526.432
-8.90125
-3.0499
527.741
-7.73983
-2.64394
528.972
-6.74195
-2.29676
530.117
-5.88899
-2.00145
531.174
-5.16043
-1.75066
532.146
-4.53992
-1.53826
533.039
-4.01015
-1.35786
533.858
-3.55374
-1.20349
534.613
-3.15313
-1.06803
535.3
-2.79259
-0.949948
-2.41788
-0.813797
548.004
9.27665
3.04154
550.54
26.4773
8.53127
555.996
42.1043
13.4257
565.037
53.2326
16.8912
574.792
54.302
17.1197
577.86
41.4746
12.3989
-14.4701
-11.1744
-13.8091
-10.6846
572.138
21.5436
5.84937
-6.35508
-2.94328
-6.3037
-3.12728
560.73
2.91002
-0.36134
550.033
-8.71568
-3.78575
541.889
-14.7622
-5.31769
536.307
-17.3239
-5.80457
532.685
-17.8842
-5.74979
530.473
-17.3877
-5.44472
529.25
-16.3331
-5.02389
528.725
-15.0209
-4.55817
528.691
-13.6093
-4.08695
528.996
-12.1988
-3.63337
529.527
-10.853
-3.2114
530.194
-9.60372
-2.82699
530.942
-8.47077
-2.48447
531.713
-7.46957
-2.18484
532.479
-6.58977
-1.92337
533.226
-5.82211
-1.69644
533.941
-5.15443
-1.50019
534.62
-4.57734
-1.33154
535.262
-4.07887
-1.18668
535.868
-3.64577
-1.06178
536.441
-3.26385
-0.951773
536.979
-2.91891
-0.855821
-2.55422
-0.742964
548.367
7.22099
2.10727
551.262
20.8829
5.9131
556.102
33.082
9.18769
562.712
41.4821
11.3515
569.089
42.6914
11.5422
571.499
34.8767
9.05517
568.677
21.8114
5.27343
562.19
8.52338
1.50407
555.1
-1.3104
-1.04409
548.956
-7.56439
-2.55461
544.178
-11.0988
-3.32132
540.681
-12.7685
-3.61899
538.23
-13.2802
-3.64487
536.579
-13.0655
-3.51506
535.53
-12.4421
-3.29982
534.934
-11.5916
-3.04254
534.672
-10.6357
-2.77018
534.653
-9.65421
-2.49991
534.808
-8.69522
-2.24182
535.084
-7.79241
-2.00292
535.432
-6.96461
-1.78682
535.824
-6.21859
-1.59362
536.239
-5.55401
-1.42251
536.663
-4.96573
-1.27188
537.086
-4.45021
-1.14061
537.504
-4.00035
-1.0267
537.915
-3.60705
-0.927934
538.319
-3.25978
-0.840919
538.716
-2.94679
-0.765347
-2.60829
-0.6744
548.38
5.44185
1.44918
551.188
16.1748
4.11753
555.38
25.9406
6.39857
560.514
32.7125
7.89456
565.217
34.2347
8.12763
567.41
29.4972
6.7885
566.286
20.739
4.55591
562.596
11.1013
2.16642
557.95
3.08944
0.312791
553.459
-2.70081
-0.971154
549.599
-6.47822
-1.75974
546.505
-8.69125
-2.19365
544.114
-9.79942
-2.38627
542.326
-10.1574
-2.42358
541.023
-10.0375
-2.36373
540.105
-9.6198
-2.24595
539.489
-9.03037
-2.09633
539.105
-8.35522
-1.93234
538.901
-7.65098
-1.76535
538.831
-6.95728
-1.6034
538.859
-6.29761
-1.45117
538.956
-5.687
-1.31124
539.103
-5.13143
-1.18455
539.285
-4.63116
-1.07096
539.491
-4.18712
-0.9706
539.714
-3.79632
-0.882731
539.951
-3.45358
-0.806286
540.203
-3.15214
-0.739255
540.469
-2.88377
-0.681739
-2.58506
-0.610736
548.22
3.95019
0.99503
550.742
12.3048
2.89614
554.343
20.2208
4.5541
558.547
25.861
5.67705
562.381
27.6159
5.95668
564.556
24.8416
5.24102
564.515
18.9091
3.88608
562.576
11.8849
2.3266
559.646
5.49535
0.980135
556.456
0.459166
-0.0533502
553.454
-3.15554
-0.774885
550.843
-5.52998
-1.23661
548.665
-6.93477
-1.50369
546.907
-7.64275
-1.63286
545.513
-7.86468
-1.66783
544.429
-7.76328
-1.64066
543.6
-7.45663
-1.5742
542.979
-7.02898
-1.48461
542.526
-6.53884
-1.38311
542.208
-6.02789
-1.27785
541.995
-5.52195
-1.17394
541.864
-5.03998
-1.07507
541.798
-4.5918
-0.983174
541.782
-4.18133
-0.89908
541.806
-3.81267
-0.823714
541.862
-3.48611
-0.757189
541.947
-3.19997
-0.699273
542.062
-2.95121
-0.649069
542.209
-2.73672
-0.607036
-2.48942
-0.553746
547.962
2.75487
0.68757
550.139
9.15783
2.0724
553.237
15.5581
3.33759
556.836
20.2714
4.23122
560.223
22.0849
4.54112
562.5
20.5755
4.17857
563.196
16.6054
3.33984
562.44
11.5132
2.29678
560.724
6.55032
1.30831
558.569
2.34596
0.48566
556.314
-0.86555
-0.141254
554.183
-3.14685
-0.585444
552.283
-4.63666
-0.878713
550.642
-5.51343
-1.05602
549.255
-5.94113
-1.14836
548.101
-6.05353
-1.18029
547.153
-5.9535
-1.17065
546.381
-5.71764
-1.13358
545.758
-5.40137
-1.07946
545.262
-5.04507
-1.01608
544.87
-4.67465
-0.948657
544.564
-4.31016
-0.881269
544.329
-3.96326
-0.816429
544.152
-3.64004
-0.75557
544.024
-3.34653
-0.70012
543.939
-3.08544
-0.650778
543.892
-2.85816
-0.607889
543.883
-2.66504
-0.571461
543.92
-2.51035
-0.542301
-2.32486
-0.504467
547.683
1.81817
0.481303
549.506
6.61382
1.53049
552.2
11.6657
2.53964
555.414
15.4997
3.28752
558.575
17.2076
3.61203
560.98
16.5181
3.45467
562.239
13.9347
2.92987
562.332
10.3399
2.21292
561.532
6.61888
1.47757
560.172
3.2889
0.820083
558.556
0.591802
0.282046
556.879
-1.42851
-0.129511
555.267
-2.83634
-0.426378
553.783
-3.74228
-0.628394
552.457
-4.26256
-0.756067
551.293
-4.50023
-0.827474
550.285
-4.53904
-0.857624
549.42
-4.44396
-0.858469
548.683
-4.26363
-0.839291
548.059
-4.03436
-0.807342
547.533
-3.78014
-0.767716
547.091
-3.52004
-0.724615
546.722
-3.26591
-0.680862
546.415
-3.02475
-0.638281
546.161
-2.80342
-0.598617
545.955
-2.60613
-0.562973
545.791
-2.43686
-0.532073
545.671
-2.29862
-0.506648
545.603
-2.20589
-0.487832
-2.09182
-0.463318
547.391
1.10084
0.339966
548.907
4.5409
1.17675
551.305
8.30445
2.02703
554.296
11.2302
2.6831
557.358
12.7058
3.01512
559.923
12.5219
2.98182
561.616
10.9599
2.65408
562.339
8.57143
2.14916
562.239
5.93917
1.58908
561.537
3.46659
1.05434
560.459
1.37062
0.588565
559.186
-0.272101
0.209139
557.852
-1.47487
-0.0839611
556.541
-2.29769
-0.299913
555.303
-2.81581
-0.451335
554.163
-3.10223
-0.55106
553.133
-3.21979
-0.610757
552.212
-3.21919
-0.640376
551.398
-3.13965
-0.648098
550.682
-3.01107
-0.640596
550.054
-2.85383
-0.622803
549.507
-2.68433
-0.598917
549.03
-2.51324
-0.571942
548.615
-2.34738
-0.543974
548.255
-2.19339
-0.516965
547.943
-2.05609
-0.492313
547.676
-1.94137
-0.470958
547.451
-1.85341
-0.454175
547.28
-1.81935
-0.443317
-1.78491
-0.430211
547.153
0.561408
0.23341
548.426
2.81563
0.951345
550.623
5.28815
1.71457
553.469
7.27421
2.31851
556.504
8.39467
2.66058
559.228
8.49214
2.71049
561.286
7.68702
2.51307
562.528
6.28399
2.14957
562.999
4.63313
1.70981
562.841
3.00397
1.26166
562.227
1.56266
0.848103
561.32
0.386245
0.491915
560.251
-0.512221
0.200837
559.115
-1.15754
-0.0269461
557.978
-1.59123
-0.198193
556.884
-1.85823
-0.321594
555.855
-1.99981
-0.406079
554.905
-2.0507
-0.459912
554.038
-2.03864
-0.490313
553.253
-1.98531
-0.503452
552.546
-1.90584
-0.504124
551.913
-1.81263
-0.496506
551.347
-1.71393
-0.483739
550.841
-1.61544
-0.468142
550.388
-1.52256
-0.451819
549.983
-1.43965
-0.436406
549.62
-1.37358
-0.422946
549.293
-1.3273
-0.413064
549.012
-1.33909
-0.407991
-1.38552
-0.404644
547.004
0.185482
0.136112
548.101
1.32655
0.825912
550.136
2.51082
1.55109
552.864
3.5233
2.13529
555.892
4.16508
2.50166
558.781
4.3378
2.62325
561.18
4.06635
2.52452
562.892
3.47138
2.26295
563.885
2.70863
1.90741
564.234
1.9111
1.51727
564.065
1.17137
1.13541
563.518
0.541083
0.788675
562.719
0.0385951
0.490708
561.774
-0.339613
0.245477
560.759
-0.608581
0.050851
559.73
-0.787968
-0.0984847
558.723
-0.897575
-0.209202
557.763
-0.955024
-0.288169
556.861
-0.97493
-0.341831
556.024
-0.969027
-0.375968
555.253
-0.945803
-0.395316
554.547
-0.912255
-0.404079
553.901
-0.87319
-0.405553
553.312
-0.832105
-0.402302
552.773
-0.792241
-0.396578
552.278
-0.756236
-0.390246
551.82
-0.729817
-0.384441
551.391
-0.713382
-0.380926
550.981
-0.743041
-0.380135
-0.841936
-0.385378
546.941
0.0639291
547.912
0.758718
549.724
1.48092
552.258
2.08622
555.229
2.51212
558.266
2.7284
561.022
2.73989
563.255
2.58186
564.853
2.30631
565.813
1.96563
566.206
1.6033
566.136
1.25111
565.718
0.929391
565.057
0.6487
564.241
0.412528
563.338
0.219763
562.401
0.0665423
561.465
-0.0523062
560.553
-0.142316
559.679
-0.208886
558.853
-0.256802
558.077
-0.2904
557.351
-0.313295
556.675
-0.32843
556.043
-0.338377
555.452
-0.345353
554.89
-0.350635
554.347
-0.356693
553.778
-0.361337
-0.374825
535.567
6.02661
16.514
126.029
20.0378
54.402
126.812
129.109
129.662
-26.1881
119.459
5.86229
26.8954
-14.847
-27.0337
25.327
1.77025
14.7835
0.302292
1.22481
-0.0164946
-1.51045
-19.7374
9.07527
-1.0439
-8.81293
20.519
5.76748
-22.2196
-0.651649
22.7223
-5.61855
3.90343
-24.1326
24.5701
-0.449864
-3.89103
2.76553
-25.785
26.1568
-0.323709
-2.81357
2.00329
-27.175
27.483
-0.237092
-2.07422
1.47442
-28.3189
28.5698
-0.175974
-1.54935
1.10243
-29.2471
29.4495
-0.132434
-1.17245
0.837657
-29.9949
30.1578
-0.10113
-0.899425
0.646658
-30.597
30.7286
-0.0783757
-0.699822
-31.0995
1.95913
125.38
-0.467859
-2.29658
-31.1084