/*--------------------------------*- C++ -*----------------------------------*\
  =========                 |
  \\      /  F ield         | OpenFOAM: The Open Source CFD Toolbox
   \\    /   O peration     | Website:  https://openfoam.org
    \\  /    A nd           | Version:  7
     \\/     M anipulation  |
\*---------------------------------------------------------------------------*/
FoamFile
{
    version     2.0;
    format      ascii;
    class       volVectorField;
    location    "400";
    object      U;
}
// * * * * * * * * * * * * * * * * * * * * * * * * * * * * * * * * * * * * * //

dimensions      [0 1 -1 0 0 0 0];

internalField   nonuniform List<vector> 
27370
(
(13.8846 0.0862893 0.0857575)
(13.0647 0.333596 0.332427)
(11.0084 0.373451 0.364862)
(5.10008 0.518523 0.484043)
(-0.739487 -0.0928587 -0.114354)
(2.87507 -0.169336 -0.179061)
(6.10689 -0.125719 -0.128713)
(8.31041 -0.0841297 -0.0850413)
(9.77079 -0.0560529 -0.0563771)
(10.7543 -0.0382573 -0.0384002)
(11.4363 -0.0269324 -0.0270105)
(11.9241 -0.019537 -0.0195879)
(12.2829 -0.0145569 -0.0145945)
(12.5884 -0.021438 -0.0214964)
(12.8466 -0.0314575 -0.0315526)
(12.9937 -0.0254167 -0.0255005)
(13.1112 -0.0206922 -0.0207671)
(13.2081 -0.0170517 -0.0171195)
(13.289 -0.0142184 -0.0142803)
(13.3568 -0.0119756 -0.0120325)
(13.4145 -0.0101736 -0.0102261)
(13.4636 -0.00870984 -0.00875836)
(13.5065 -0.00744342 -0.00748835)
(13.5405 -0.0064832 -0.00652487)
(13.5812 -0.00502267 -0.00506181)
(13.8902 0.228729 0.0749235)
(13.2562 0.845348 0.278204)
(11.6605 1.60233 0.313586)
(7.24567 3.7508 0.411805)
(1.55372 -1.39629 -0.151618)
(5.33229 -1.40938 -0.158025)
(7.65572 -0.954146 -0.107249)
(9.20386 -0.643656 -0.0719982)
(10.2872 -0.441877 -0.0492543)
(11.0631 -0.310295 -0.0345236)
(11.6292 -0.223363 -0.0248298)
(12.05 -0.164744 -0.0183071)
(12.3687 -0.124264 -0.0138108)
(12.658 -0.102039 -0.0203854)
(12.9083 -0.0896469 -0.029786)
(13.0412 -0.0729349 -0.024226)
(13.1488 -0.0597373 -0.0198436)
(13.2384 -0.0494437 -0.016436)
(13.3138 -0.0413755 -0.0137651)
(13.3775 -0.034957 -0.0116381)
(13.4319 -0.0297772 -0.00992035)
(13.4785 -0.0255414 -0.00851799)
(13.5193 -0.0219059 -0.00730436)
(13.5521 -0.0189458 -0.00638009)
(13.591 -0.0152412 -0.00494631)
(13.9145 0.303937 0.0599207)
(13.5043 1.03085 0.202791)
(12.6372 2.05299 0.221351)
(10.7631 4.5458 0.263697)
(0.722281 -0.00896266 0.0529908)
(8.18426 -2.6619 -0.150924)
(9.16726 -1.72748 -0.0999087)
(9.96099 -1.19347 -0.0700295)
(10.6339 -0.856326 -0.0503573)
(11.1935 -0.626461 -0.0367915)
(11.6514 -0.46478 -0.0272565)
(12.0219 -0.349664 -0.0204856)
(12.3201 -0.266916 -0.0156288)
(12.5601 -0.206822 -0.012107)
(12.7996 -0.164418 -0.0181702)
(13.0172 -0.134657 -0.0267373)
(13.1267 -0.110811 -0.0219964)
(13.2174 -0.0917742 -0.0182042)
(13.2944 -0.0766427 -0.0152098)
(13.36 -0.06461 -0.0128313)
(13.4163 -0.0549311 -0.0109167)
(13.4649 -0.0470467 -0.0093566)
(13.507 -0.0405338 -0.00807321)
(13.544 -0.0349558 -0.00695721)
(13.5742 -0.0301618 -0.00610355)
(13.6102 -0.0250194 -0.00475701)
(13.9542 0.317111 0.0457769)
(13.7146 1.01792 0.143521)
(13.4643 2.06603 0.295705)
(13.1924 3.66893 0.280224)
(14.1387 6.41854 0.257053)
(11.5285 -5.61228 -0.185843)
(11.6508 -3.27506 -0.132896)
(11.3487 -2.00273 -0.0794335)
(11.3932 -1.42355 -0.0563959)
(11.5649 -1.07151 -0.0425673)
(11.7869 -0.82794 -0.0329108)
(12.0212 -0.646555 -0.0256751)
(12.2476 -0.507527 -0.0201289)
(12.4551 -0.400333 -0.0158615)
(12.6391 -0.3177 -0.0125791)
(12.7988 -0.254158 -0.0100557)
(12.9783 -0.203326 -0.0154556)
(13.1524 -0.163825 -0.0230651)
(13.2354 -0.136756 -0.0192465)
(13.3065 -0.11478 -0.0161384)
(13.3683 -0.0969521 -0.0136371)
(13.4221 -0.0825168 -0.0116151)
(13.4691 -0.0707337 -0.00996468)
(13.5102 -0.0610175 -0.00860417)
(13.5464 -0.0529036 -0.00747428)
(13.5786 -0.0459143 -0.00648463)
(13.6052 -0.0397948 -0.00572346)
(13.6374 -0.0334402 -0.00450749)
(13.9814 0.295961 0.0336841)
(13.8828 0.894329 0.0992873)
(13.8434 1.63427 0.178952)
(13.946 2.5203 0.144738)
(14.8118 3.231 0.187767)
(16.4343 2.99346 0.0909874)
(17.2911 0.285857 0.00909234)
(14.8058 -1.56225 -0.0947819)
(13.3992 -1.54446 -0.0918144)
(12.8684 -1.24396 -0.0733658)
(12.6812 -1.00272 -0.0586583)
(12.6375 -0.822361 -0.0478253)
(12.6631 -0.680829 -0.0394558)
(12.7259 -0.564733 -0.032657)
(12.8086 -0.467771 -0.0270116)
(12.8998 -0.386848 -0.022319)
(12.992 -0.319804 -0.0184453)
(13.0802 -0.264652 -0.0152787)
(13.1636 -0.220288 -0.012719)
(13.2956 -0.178243 -0.0193218)
(13.3539 -0.151064 -0.0163733)
(13.4059 -0.128578 -0.0139288)
(13.4524 -0.109971 -0.0119202)
(13.494 -0.0946078 -0.0102639)
(13.5311 -0.08186 -0.00889064)
(13.5642 -0.0712053 -0.00774396)
(13.5938 -0.0622054 -0.00678197)
(13.6206 -0.0543909 -0.00593261)
(13.6431 -0.0474714 -0.00527629)
(13.671 -0.040302 -0.0042117)
(13.9972 0.256946 0.0240215)
(13.987 0.744739 0.0684488)
(14.0359 1.25229 0.113843)
(14.2856 1.67917 0.153348)
(14.7799 1.75283 0.160315)
(15.2786 1.52533 0.0724769)
(15.362 0.443274 0.0195869)
(14.5162 -0.386237 -0.0405774)
(13.9567 -0.623427 -0.0607714)
(13.6066 -0.668388 -0.0618954)
(13.412 -0.632605 -0.0571337)
(13.3091 -0.572171 -0.0510157)
(13.2613 -0.507704 -0.0449216)
(13.2485 -0.44549 -0.0392145)
(13.2585 -0.387583 -0.033991)
(13.2831 -0.334909 -0.0292973)
(13.3166 -0.287913 -0.0251511)
(13.3545 -0.246695 -0.0215545)
(13.3946 -0.210574 -0.0184608)
(13.4344 -0.180665 -0.015839)
(13.4722 -0.155583 -0.0136418)
(13.5075 -0.134281 -0.0117836)
(13.5402 -0.116308 -0.0102173)
(13.5704 -0.101175 -0.00889898)
(13.598 -0.0884072 -0.00778832)
(13.6232 -0.0775883 -0.00684873)
(13.6462 -0.0683479 -0.00605286)
(13.6676 -0.0602597 -0.00534504)
(13.6857 -0.0530359 -0.00479652)
(13.709 -0.0454855 -0.00389086)
(14.0059 0.211173 0.0167227)
(14.0406 0.602713 0.046826)
(14.1267 0.969468 0.0744791)
(14.3222 1.24186 0.0951345)
(14.6166 1.26607 0.0968972)
(14.8448 0.927001 0.0682321)
(14.8034 0.410591 0.0285124)
(14.5136 -0.0469252 -0.00711287)
(14.1801 -0.296262 -0.0249191)
(13.9228 -0.404582 -0.0319401)
(13.7468 -0.435324 -0.033443)
(13.6325 -0.42738 -0.0322929)
(13.5623 -0.401402 -0.0300107)
(13.5228 -0.367664 -0.0272986)
(13.5048 -0.331299 -0.0244805)
(13.5017 -0.295069 -0.0217303)
(13.509 -0.260572 -0.0191468)
(13.5232 -0.228779 -0.0167883)
(13.5417 -0.199881 -0.0146735)
(13.5626 -0.174551 -0.012817)
(13.5844 -0.152558 -0.0112165)
(13.6061 -0.133483 -0.00982825)
(13.6271 -0.117043 -0.00863162)
(13.6473 -0.102929 -0.00760534)
(13.6664 -0.0908286 -0.00672722)
(13.6844 -0.0804417 -0.00597519)
(13.7013 -0.0714824 -0.00533294)
(13.7173 -0.063588 -0.00475877)
(13.7313 -0.0564953 -0.00431366)
(13.75 -0.0489675 -0.00356505)
(14.0095 0.166353 0.011479)
(14.0622 0.476335 0.032028)
(14.1562 0.754262 0.0499284)
(14.3124 0.948943 0.0620862)
(14.509 0.970521 0.0630741)
(14.6513 0.76234 0.0483441)
(14.6428 0.43505 0.0265095)
(14.492 0.116 0.00549373)
(14.2885 -0.0992863 -0.00793295)
(14.1054 -0.224093 -0.0154441)
(13.9611 -0.286433 -0.0189804)
(13.8547 -0.309409 -0.0200902)
(13.7798 -0.309327 -0.0198486)
(13.7292 -0.296327 -0.0188792)
(13.6967 -0.276449 -0.0175338)
(13.6778 -0.253337 -0.0160238)
(13.669 -0.229244 -0.0144781)
(13.6675 -0.205619 -0.012978)
(13.6712 -0.183253 -0.0115675)
(13.6785 -0.162642 -0.0102829)
(13.6881 -0.144175 -0.00913591)
(13.6989 -0.127772 -0.0081159)
(13.7105 -0.113331 -0.00721782)
(13.7223 -0.100707 -0.00643339)
(13.7341 -0.0897224 -0.0057522)
(13.7457 -0.0801839 -0.00516233)
(13.757 -0.0718918 -0.00465542)
(13.7682 -0.0645567 -0.00420151)
(13.7783 -0.0579552 -0.00385067)
(13.7926 -0.0508002 -0.00325058)
(14.01 0.126633 0.00782347)
(14.0659 0.369916 0.0220234)
(14.1552 0.588268 0.0342477)
(14.2827 0.739013 0.0423083)
(14.4267 0.766338 0.0434143)
(14.5307 0.641275 0.0355629)
(14.543 0.424966 0.0230201)
(14.4656 0.196914 0.00997912)
(14.3415 0.0190928 0.000225336)
(14.2142 -0.101921 -0.00627223)
(14.1019 -0.175724 -0.010146)
(14.0107 -0.214987 -0.0121422)
(13.94 -0.231167 -0.0129186)
(13.8869 -0.23259 -0.0129301)
(13.8482 -0.224968 -0.0124762)
(13.8208 -0.212093 -0.0117545)
(13.8023 -0.196467 -0.0108947)
(13.7906 -0.179764 -0.00998275)
(13.7843 -0.163031 -0.0090727)
(13.7819 -0.146962 -0.0082029)
(13.7824 -0.132044 -0.00739674)
(13.7849 -0.118434 -0.00666037)
(13.7889 -0.106191 -0.00599737)
(13.7939 -0.0952995 -0.00540748)
(13.7996 -0.0856916 -0.00488787)
(13.8057 -0.0772653 -0.00443352)
(13.8121 -0.0699027 -0.00404159)
(13.819 -0.0633916 -0.00369198)
(13.8255 -0.057565 -0.00342369)
(13.8357 -0.0510767 -0.00295958)
(14.0087 0.0932691 0.00533323)
(14.0603 0.282671 0.0153265)
(14.14 0.458084 0.0240918)
(14.2466 0.581318 0.029964)
(14.3611 0.614086 0.0313144)
(14.4477 0.540023 0.0271429)
(14.475 0.394968 0.0196557)
(14.4412 0.229678 0.0112588)
(14.3682 0.0866502 0.0042092)
(14.2821 -0.0214754 -0.00106887)
(14.198 -0.0955204 -0.00466741)
(14.1234 -0.141524 -0.00690223)
(14.0608 -0.166723 -0.00814158)
(14.0099 -0.177396 -0.00868847)
(13.9696 -0.178362 -0.00877124)
(13.9382 -0.173116 -0.00855364)
(13.9142 -0.16411 -0.00815086)
(13.8963 -0.153056 -0.00764375)
(13.8831 -0.141104 -0.00708732)
(13.8739 -0.129041 -0.00652035)
(13.8678 -0.117409 -0.00596999)
(13.864 -0.106495 -0.00545018)
(13.8621 -0.096462 -0.0049698)
(13.8616 -0.0873833 -0.0045337)
(13.8622 -0.079272 -0.0041439)
(13.8637 -0.0721013 -0.00380009)
(13.8659 -0.0658268 -0.00350312)
(13.8689 -0.0603136 -0.00324129)
(13.8722 -0.0554751 -0.00304281)
(13.8786 -0.0499004 -0.00270022)
(14.0063 0.0662056 0.00366736)
(14.0502 0.212104 0.010891)
(14.1195 0.354067 0.0174772)
(14.2109 0.456948 0.0220743)
(14.3083 0.492613 0.0235898)
(14.3873 0.450767 0.0214604)
(14.4262 0.35322 0.0168773)
(14.421 0.233284 0.0113064)
(14.3828 0.120797 0.00616614)
(14.3275 0.0289061 0.00195871)
(14.2669 -0.0392597 -0.00119369)
(14.208 -0.085763 -0.00338585)
(14.1548 -0.114732 -0.00480193)
(14.1085 -0.130564 -0.00563103)
(14.0693 -0.137058 -0.00603618)
(14.0366 -0.137173 -0.00614369)
(14.0098 -0.13312 -0.00604939)
(13.9879 -0.126512 -0.00582459)
(13.9704 -0.118486 -0.00552085)
(13.9564 -0.109839 -0.00517584)
(13.9454 -0.10113 -0.00481706)
(13.9368 -0.0927057 -0.00446198)
(13.9303 -0.0847831 -0.0041226)
(13.9254 -0.0774918 -0.00380688)
(13.9218 -0.0709004 -0.00351996)
(13.9194 -0.0650394 -0.00326476)
(13.918 -0.0599284 -0.00304446)
(13.9176 -0.0555071 -0.00285471)
(13.918 -0.0518052 -0.00271321)
(13.9208 -0.0473591 -0.00247733)
(14.0032 0.0448677 0.00256108)
(14.0384 0.155357 0.00798562)
(14.0982 0.269 0.0131845)
(14.1786 0.354 0.0169971)
(14.2665 0.389339 0.0185969)
(14.3429 0.368075 0.0176318)
(14.3912 0.303585 0.0147823)
(14.4062 0.217844 0.0109838)
(14.3929 0.131821 0.00717269)
(14.3612 0.0570917 0.00381174)
(14.3197 -0.00181334 0.00109699)
(14.275 -0.0447095 -0.000952535)
(14.2311 -0.0736411 -0.00241063)
(14.1903 -0.0914662 -0.00338655)
(14.1535 -0.100969 -0.00398912)
(14.1212 -0.104505 -0.00431181)
(14.0932 -0.103936 -0.00443131)
(14.0691 -0.100679 -0.00440826)
(14.0486 -0.095772 -0.0042891)
(14.0313 -0.0899616 -0.00410921)
(14.0167 -0.083781 -0.00389536)
(14.0045 -0.0775869 -0.00366649)
(13.9944 -0.0716153 -0.00343636)
(13.9859 -0.0660222 -0.00321485)
(13.979 -0.0609095 -0.00300909)
(13.9733 -0.0563471 -0.00282431)
(13.9687 -0.0524087 -0.00266488)
(13.9653 -0.0491006 -0.00253314)
(13.963 -0.0466173 -0.00243626)
(13.9624 -0.0434977 -0.00229302)
(13.9999 0.0284973 0.00181074)
(14.0267 0.109658 0.00610053)
(14.0789 0.197361 0.0104415)
(14.152 0.264704 0.0137702)
(14.2346 0.296663 0.0154143)
(14.311 0.288377 0.0151409)
(14.3674 0.247728 0.0133646)
(14.3975 0.188772 0.010706)
(14.403 0.125877 0.00781347)
(14.3897 0.068293 0.00508456)
(14.3641 0.0205971 0.00273202)
(14.3317 -0.0159304 0.000834446)
(14.2965 -0.0420216 -0.000617407)
(14.2613 -0.0593381 -0.00167641)
(14.2277 -0.0697742 -0.0024102)
(14.1966 -0.0750769 -0.0028855)
(14.1684 -0.0767064 -0.00316216)
(14.1431 -0.0758183 -0.0032908)
(14.1207 -0.0732891 -0.00331256)
(14.1011 -0.0697659 -0.0032602)
(14.0839 -0.0657193 -0.00315951)
(14.0689 -0.0614776 -0.00302996)
(14.0558 -0.0572669 -0.00288634)
(14.0445 -0.0532456 -0.00273983)
(14.0347 -0.0495282 -0.0025989)
(14.0262 -0.0462056 -0.00247054)
(14.0189 -0.0433937 -0.0023593)
(14.0127 -0.0411479 -0.00227387)
(14.0079 -0.0398795 -0.00220988)
(14.0037 -0.0382737 -0.00214696)
(13.9971 0.0161886 0.00125235)
(14.017 0.072494 0.00490775)
(14.0636 0.135005 0.00877795)
(14.1318 0.184066 0.0118312)
(14.2116 0.210103 0.013526)
(14.2894 0.209572 0.013703)
(14.3528 0.186458 0.0126247)
(14.3952 0.149088 0.0107187)
(14.4158 0.106663 0.00845612)
(14.4176 0.0658613 0.00617521)
(14.4055 0.0305515 0.00408834)
(14.384 0.00232143 0.00230473)
(14.3569 -0.0187831 0.000857087)
(14.3273 -0.0335775 -0.000268377)
(14.2971 -0.0432133 -0.00110874)
(14.2677 -0.0488596 -0.00170949)
(14.2399 -0.0515533 -0.00211645)
(14.2141 -0.0521495 -0.00237162)
(14.1905 -0.0513176 -0.00251136)
(14.1691 -0.0495645 -0.00256607)
(14.1499 -0.0472659 -0.00256065)
(14.1327 -0.044692 -0.00251486)
(14.1173 -0.0420341 -0.00244422)
(14.1035 -0.0394324 -0.00236099)
(14.0913 -0.0369941 -0.00227454)
(14.0803 -0.0348126 -0.00219347)
(14.0706 -0.0330269 -0.0021216)
(14.0616 -0.0317137 -0.00207399)
(14.0545 -0.0315125 -0.00203174)
(14.0462 -0.0315369 -0.00203816)
(13.9961 0.00646409 0.000725634)
(14.0109 0.0416565 0.00427078)
(14.053 0.0790124 0.00794976)
(14.117 0.109316 0.0108947)
(14.1946 0.12738 0.0127064)
(14.2743 0.130592 0.0132501)
(14.3447 0.120161 0.0126758)
(14.3983 0.100256 0.0112896)
(14.4325 0.075937 0.00945198)
(14.4484 0.0513071 0.00746155)
(14.4489 0.0290626 0.00553131)
(14.4379 0.0105771 0.00379245)
(14.419 -0.00378837 0.00230823)
(14.3952 -0.014301 0.00109418)
(14.3689 -0.0215301 0.000136301)
(14.3418 -0.026135 -0.000594283)
(14.315 -0.0287422 -0.00113232)
(14.2892 -0.0298908 -0.00151298)
(14.2648 -0.0300152 -0.00176885)
(14.2422 -0.029452 -0.00192855)
(14.2214 -0.0284533 -0.00201641)
(14.2022 -0.0272058 -0.00205256)
(14.1848 -0.0258412 -0.00205322)
(14.1688 -0.024463 -0.0020318)
(14.1543 -0.0231462 -0.0019983)
(14.141 -0.0219655 -0.00196291)
(14.1289 -0.0210567 -0.00192835)
(14.1172 -0.0204344 -0.00191464)
(14.1078 -0.0209403 -0.00188744)
(14.0938 -0.0225388 -0.00195333)
(13.9983 0.000679154 0.000315482)
(14.0092 0.016237 0.00396621)
(14.0448 0.0332657 0.00770348)
(14.1027 0.0486812 0.010797)
(14.1765 0.0598989 0.0129508)
(14.2571 0.0651124 0.014006)
(14.3346 0.0639435 0.0139983)
(14.4006 0.0574921 0.0131235)
(14.4505 0.0477071 0.0116606)
(14.4829 0.0365227 0.00988098)
(14.4992 0.0254616 0.00800686)
(14.5019 0.0155174 0.00619939)
(14.4941 0.00718689 0.00455929)
(14.4788 0.000598678 0.00313702)
(14.4586 -0.00434669 0.00194735)
(14.4354 -0.00787094 0.000981914)
(14.4109 -0.0102383 0.000219099)
(14.3861 -0.0117065 -0.000368801)
(14.3618 -0.012502 -0.000810898)
(14.3384 -0.0128118 -0.001135)
(14.3161 -0.0127838 -0.00136606)
(14.2953 -0.012532 -0.00152579)
(14.2757 -0.0121412 -0.00163233)
(14.2575 -0.0116767 -0.00170116)
(14.2406 -0.0111905 -0.00174416)
(14.2247 -0.0107201 -0.0017737)
(14.21 -0.0103541 -0.00179262)
(14.1951 -0.0100834 -0.00182515)
(14.1837 -0.0102698 -0.00182612)
(14.1604 -0.0118314 -0.00192352)
(13.8901 0.0750415 0.228254)
(13.256 0.278861 0.843584)
(11.659 0.314706 1.59697)
(7.24926 0.412454 3.75667)
(1.6424 -0.152115 -1.55655)
(5.38023 -0.154534 -1.46283)
(7.66881 -0.105634 -0.970517)
(9.20722 -0.0713981 -0.649342)
(10.2881 -0.0490104 -0.444176)
(11.0633 -0.0344056 -0.311407)
(11.6293 -0.0247614 -0.224008)
(12.0501 -0.0182608 -0.165179)
(12.3687 -0.0137758 -0.124591)
(12.658 -0.0203306 -0.102324)
(12.9083 -0.0296974 -0.0899255)
(13.0412 -0.0241471 -0.0731817)
(13.1488 -0.0197726 -0.0599588)
(13.2384 -0.0163714 -0.0496445)
(13.3138 -0.0137059 -0.0415591)
(13.3775 -0.0115835 -0.0351258)
(13.4319 -0.00986991 -0.029933)
(13.4785 -0.00847126 -0.0256856)
(13.5193 -0.00726102 -0.0220394)
(13.5521 -0.00633985 -0.0190698)
(13.591 -0.00490847 -0.0153576)
(13.902 0.202016 0.20179)
(13.3913 0.719589 0.718294)
(12.1389 1.37711 1.37357)
(8.81547 3.15785 3.14513)
(4.62636 -1.60708 -1.61552)
(7.24249 -1.1957 -1.21214)
(8.77172 -0.804177 -0.812875)
(9.87084 -0.555417 -0.55923)
(10.6951 -0.391712 -0.393473)
(11.3199 -0.281625 -0.282554)
(11.7964 -0.206556 -0.207126)
(12.1627 -0.154554 -0.154952)
(12.4473 -0.117876 -0.118181)
(12.7219 -0.0969589 -0.0972264)
(12.965 -0.0848133 -0.0850735)
(13.0855 -0.069406 -0.0696385)
(13.1842 -0.0571539 -0.0573638)
(13.2672 -0.0475184 -0.0477097)
(13.3375 -0.0399152 -0.0400907)
(13.3973 -0.0338332 -0.033995)
(13.4487 -0.0289021 -0.0290519)
(13.493 -0.0248524 -0.0249913)
(13.5318 -0.0213724 -0.0215012)
(13.5635 -0.0185232 -0.0186429)
(13.6007 -0.0149352 -0.0150478)
(13.9299 0.273261 0.163599)
(13.5842 0.907133 0.54137)
(12.8898 1.7994 0.991994)
(11.8639 4.07519 2.27835)
(11.2128 9.45541 4.83285)
(5.36378 -2.87859 -1.34725)
(9.34104 -2.18951 -1.13636)
(9.93164 -1.4685 -0.770956)
(10.4863 -1.04152 -0.551035)
(10.9946 -0.763438 -0.404459)
(11.4419 -0.569028 -0.301206)
(11.824 -0.42896 -0.226834)
(12.1434 -0.326995 -0.172796)
(12.4072 -0.252285 -0.133262)
(12.6239 -0.197177 -0.10411)
(12.8532 -0.156866 -0.0869568)
(13.0659 -0.12789 -0.0766367)
(13.1655 -0.105761 -0.0634007)
(13.2491 -0.087999 -0.0527272)
(13.3205 -0.0737831 -0.0442151)
(13.3819 -0.0624102 -0.0374129)
(13.4348 -0.0532178 -0.0319149)
(13.4807 -0.0456988 -0.0274185)
(13.5207 -0.0394649 -0.0236984)
(13.556 -0.034116 -0.0204853)
(13.5851 -0.0294892 -0.0178398)
(13.6195 -0.0245703 -0.01448)
(13.9636 0.290111 0.126126)
(13.7687 0.915289 0.392213)
(13.5944 1.80566 0.770804)
(13.4316 3.15948 1.21975)
(14.3642 5.23596 1.87106)
(20.2538 7.8675 2.75776)
(16.5777 -5.77043 -1.97858)
(12.0912 -2.73898 -0.984029)
(11.6901 -1.75499 -0.627865)
(11.6765 -1.27363 -0.455294)
(11.7936 -0.972408 -0.348076)
(11.9666 -0.760431 -0.272254)
(12.1599 -0.600372 -0.214771)
(12.3537 -0.475952 -0.170089)
(12.5361 -0.378682 -0.135216)
(12.7012 -0.302743 -0.108041)
(12.8469 -0.243718 -0.0869005)
(13.0205 -0.19491 -0.0742315)
(13.1921 -0.156268 -0.0663785)
(13.2681 -0.130967 -0.0556534)
(13.3338 -0.110342 -0.0468544)
(13.3913 -0.0935177 -0.0397145)
(13.4416 -0.0798269 -0.0339144)
(13.4858 -0.0686061 -0.0291633)
(13.5248 -0.0593213 -0.0252345)
(13.5591 -0.0515436 -0.0219548)
(13.5898 -0.0448329 -0.0191023)
(13.6154 -0.0389199 -0.0167401)
(13.6463 -0.0328619 -0.0137079)
(13.9859 0.273778 0.0936476)
(13.9122 0.81832 0.275731)
(13.8919 1.47102 0.489733)
(13.9938 2.27287 0.657727)
(14.7836 2.84006 0.826944)
(16.0722 2.17358 0.642725)
(16.7591 0.35361 0.0926885)
(14.7777 -1.22856 -0.370045)
(13.5371 -1.33036 -0.39676)
(13.0146 -1.11287 -0.329444)
(12.814 -0.913705 -0.268295)
(12.754 -0.757551 -0.221106)
(12.7631 -0.632404 -0.183918)
(12.8104 -0.528483 -0.153352)
(12.879 -0.44078 -0.127705)
(12.9578 -0.366838 -0.106169)
(13.0396 -0.304989 -0.0882233)
(13.1194 -0.253699 -0.0734126)
(13.196 -0.21213 -0.0613183)
(13.3273 -0.170687 -0.0558105)
(13.3807 -0.145148 -0.0474914)
(13.4288 -0.123927 -0.040535)
(13.4721 -0.106288 -0.034778)
(13.511 -0.091667 -0.0300127)
(13.5459 -0.0794944 -0.0260497)
(13.5773 -0.0692911 -0.0227319)
(13.6054 -0.0606507 -0.0199353)
(13.6309 -0.0531391 -0.0174849)
(13.6526 -0.0464478 -0.015445)
(13.6792 -0.0396152 -0.0127898)
(13.9995 0.239711 0.0672774)
(14.0008 0.691737 0.191839)
(14.0591 1.15063 0.315894)
(14.2973 1.52552 0.413819)
(14.7402 1.58399 0.435581)
(15.1971 1.40891 0.323153)
(15.2693 0.450316 0.0985484)
(14.5149 -0.300742 -0.0969655)
(14.0098 -0.539273 -0.15759)
(13.6767 -0.5981 -0.166327)
(13.4835 -0.576394 -0.156498)
(13.3769 -0.527211 -0.141449)
(13.3238 -0.471575 -0.125662)
(13.3049 -0.416494 -0.11049)
(13.3086 -0.364441 -0.0963738)
(13.3271 -0.316558 -0.0835292)
(13.3549 -0.273439 -0.072069)
(13.3877 -0.235335 -0.0620358)
(13.4235 -0.201779 -0.0533231)
(13.4594 -0.173624 -0.0459287)
(13.4939 -0.149919 -0.0396823)
(13.5265 -0.129722 -0.0343649)
(13.5569 -0.112619 -0.0298607)
(13.5851 -0.0981732 -0.0260576)
(13.611 -0.0859509 -0.0228449)
(13.6349 -0.0755702 -0.0201214)
(13.6567 -0.0666862 -0.0178044)
(13.677 -0.058904 -0.0157609)
(13.6945 -0.0519139 -0.0140535)
(13.7167 -0.044719 -0.0117933)
(14.0068 0.19836 0.0471171)
(14.0461 0.565275 0.132245)
(14.1348 0.904561 0.209233)
(14.3227 1.15159 0.264538)
(14.5949 1.17257 0.269687)
(14.803 0.868958 0.191681)
(14.7685 0.403219 0.086688)
(14.5091 -0.0160584 -0.0128246)
(14.2021 -0.254761 -0.0649833)
(13.9572 -0.364519 -0.0867562)
(13.7858 -0.400031 -0.0925583)
(13.6722 -0.397253 -0.0904425)
(13.6008 -0.37603 -0.0847523)
(13.5591 -0.346475 -0.0775841)
(13.5383 -0.313736 -0.0699401)
(13.5323 -0.280617 -0.0623639)
(13.5366 -0.248752 -0.0551714)
(13.5479 -0.219149 -0.048551)
(13.5637 -0.192057 -0.0425732)
(13.5822 -0.168184 -0.0372875)
(13.6019 -0.147345 -0.0327029)
(13.6217 -0.129199 -0.0287146)
(13.6412 -0.113508 -0.0252645)
(13.66 -0.100001 -0.022297)
(13.6778 -0.0883931 -0.0197519)
(13.6947 -0.0784106 -0.0175687)
(13.7107 -0.0697866 -0.0156967)
(13.7259 -0.0621857 -0.0140382)
(13.7393 -0.0553194 -0.0126513)
(13.7571 -0.0481487 -0.0107802)
(14.0097 0.15715 0.0325002)
(14.0636 0.450061 0.0910465)
(14.1575 0.711151 0.141641)
(14.3087 0.892124 0.175536)
(14.4947 0.912514 0.178547)
(14.6286 0.723995 0.138248)
(14.6236 0.423277 0.0783814)
(14.4865 0.126685 0.0192741)
(14.297 -0.0789669 -0.0196775)
(14.1225 -0.201164 -0.0419101)
(13.9829 -0.264077 -0.052783)
(13.8786 -0.288999 -0.0566064)
(13.8041 -0.291287 -0.0563942)
(13.7531 -0.28067 -0.0539637)
(13.7196 -0.263028 -0.0503553)
(13.6994 -0.241944 -0.0461993)
(13.6891 -0.219647 -0.0418846)
(13.686 -0.197582 -0.0376575)
(13.6882 -0.176551 -0.0336571)
(13.694 -0.157059 -0.0299831)
(13.7022 -0.139506 -0.0266869)
(13.7119 -0.123861 -0.0237485)
(13.7223 -0.110047 -0.0211534)
(13.7331 -0.0979409 -0.0188809)
(13.744 -0.0873866 -0.0169035)
(13.7548 -0.0782079 -0.0151889)
(13.7654 -0.0702194 -0.01371)
(13.7759 -0.0631547 -0.0123984)
(13.7856 -0.0567631 -0.0113054)
(13.7991 -0.0499533 -0.00980104)
(14.0099 0.120166 0.0222396)
(14.0656 0.351467 0.0629566)
(14.1537 0.558717 0.0978835)
(14.2779 0.701322 0.120866)
(14.4163 0.727915 0.124238)
(14.5164 0.613405 0.102716)
(14.5307 0.412347 0.0677026)
(14.4601 0.198219 0.0307473)
(14.344 0.0282581 0.00247561)
(14.2225 -0.0890843 -0.0165878)
(14.1141 -0.161761 -0.0281478)
(14.0252 -0.201301 -0.0342726)
(13.9556 -0.218436 -0.0368129)
(13.9029 -0.221099 -0.0370786)
(13.8641 -0.214791 -0.0359443)
(13.8362 -0.203201 -0.0339906)
(13.8171 -0.188776 -0.0316011)
(13.8047 -0.17316 -0.0290319)
(13.7975 -0.157395 -0.0264463)
(13.7942 -0.14216 -0.023957)
(13.7939 -0.127952 -0.021638)
(13.7957 -0.114945 -0.0195133)
(13.7989 -0.103213 -0.0175946)
(13.8032 -0.0927527 -0.0158835)
(13.8082 -0.0835095 -0.0143734)
(13.8137 -0.075394 -0.0130516)
(13.8196 -0.0682976 -0.0119075)
(13.826 -0.0620275 -0.010897)
(13.8321 -0.0563883 -0.0100633)
(13.8417 -0.0502228 -0.00889343)
(14.0085 0.0888099 0.0152065)
(14.0594 0.269683 0.0440179)
(14.1378 0.437309 0.0692604)
(14.242 0.555126 0.0862371)
(14.3532 0.58721 0.0902931)
(14.4377 0.519078 0.0788358)
(14.466 0.38313 0.0577407)
(14.436 0.226855 0.0337975)
(14.3677 0.0899126 0.0133497)
(14.2856 -0.0146576 -0.00209203)
(14.2046 -0.086976 -0.0127278)
(14.1321 -0.132446 -0.0194223)
(14.0708 -0.157802 -0.0232065)
(14.0208 -0.169009 -0.0249503)
(13.9808 -0.170691 -0.0253155)
(13.9494 -0.166228 -0.0247805)
(13.9253 -0.158005 -0.0236842)
(13.907 -0.147694 -0.0222653)
(13.8935 -0.136429 -0.0206877)
(13.8838 -0.124981 -0.0190666)
(13.8772 -0.113888 -0.0174835)
(13.8729 -0.103445 -0.0159827)
(13.8705 -0.0938186 -0.0145915)
(13.8695 -0.0850903 -0.0133256)
(13.8697 -0.0772808 -0.0121921)
(13.8708 -0.0703713 -0.0111914)
(13.8726 -0.0643234 -0.0103244)
(13.8752 -0.0590184 -0.0095673)
(13.8782 -0.0543409 -0.00895462)
(13.8841 -0.0490587 -0.00808264)
(14.0061 0.0631928 0.0104745)
(14.0492 0.202951 0.0313996)
(14.1173 0.3392 0.0504857)
(14.2068 0.438164 0.0638864)
(14.3021 0.47308 0.0684071)
(14.3798 0.434615 0.0625752)
(14.4191 0.342719 0.0495865)
(14.416 0.228784 0.0336221)
(14.3808 0.120893 0.018697)
(14.3284 0.0320859 0.00639727)
(14.2701 -0.0342644 -0.00288532)
(14.213 -0.0798842 -0.00939394)
(14.1611 -0.108586 -0.0136389)
(14.1157 -0.124528 -0.0161605)
(14.0771 -0.13135 -0.0174297)
(14.0447 -0.131906 -0.0178146)
(14.018 -0.128342 -0.0175961)
(13.9962 -0.122228 -0.0169839)
(13.9785 -0.114677 -0.0161307)
(13.9643 -0.106473 -0.0151482)
(13.9531 -0.0981634 -0.0141181)
(13.9443 -0.0900965 -0.0130935)
(13.9374 -0.0824898 -0.0121109)
(13.9322 -0.0754757 -0.0111945)
(13.9284 -0.0691271 -0.0103601)
(13.9257 -0.0634794 -0.00961722)
(13.924 -0.0585551 -0.00897455)
(13.9233 -0.0543077 -0.00842496)
(13.9234 -0.050738 -0.00799493)
(13.9259 -0.0465474 -0.00738344)
(14.0031 0.0428854 0.00731612)
(14.0375 0.148932 0.0230978)
(14.0962 0.258298 0.0382443)
(14.1753 0.340351 0.0494083)
(14.2615 0.374906 0.0541625)
(14.3368 0.355541 0.0515666)
(14.3852 0.294608 0.0434624)
(14.4014 0.212905 0.0325344)
(14.39 0.130288 0.0214537)
(14.3603 0.058079 0.0116259)
(14.3207 0.000841153 0.0036435)
(14.2775 -0.0410818 -0.00241726)
(14.2348 -0.0695441 -0.00675495)
(14.1949 -0.0872381 -0.00967936)
(14.1588 -0.0968245 -0.0115038)
(14.127 -0.100572 -0.0125003)
(14.0992 -0.100284 -0.0128931)
(14.0753 -0.0973377 -0.0128601)
(14.0549 -0.0927467 -0.0125384)
(14.0376 -0.0872426 -0.0120327)
(14.023 -0.0813483 -0.0114222)
(14.0107 -0.0754164 -0.0107638)
(14.0004 -0.0696816 -0.0100985)
(13.9918 -0.0643005 -0.00945612)
(13.9847 -0.0593764 -0.00885818)
(13.9788 -0.0549819 -0.00832053)
(13.9741 -0.0511913 -0.00785635)
(13.9704 -0.0480219 -0.00747295)
(13.968 -0.0456413 -0.00718838)
(13.9671 -0.0427341 -0.00680193)
(13.9999 0.0272433 0.00516283)
(14.026 0.105228 0.0176977)
(14.0773 0.189777 0.0304063)
(14.1492 0.254905 0.0401754)
(14.2304 0.286108 0.0450524)
(14.3058 0.278824 0.0443961)
(14.362 0.240373 0.0393367)
(14.3927 0.184092 0.0316634)
(14.3994 0.123642 0.0232386)
(14.3875 0.0680111 0.0152508)
(14.3634 0.0217201 0.0083347)
(14.3322 -0.0138935 0.00273263)
(14.2982 -0.0394564 -0.00157115)
(14.2639 -0.0565229 -0.00472384)
(14.231 -0.0668984 -0.00691954)
(14.2005 -0.0722631 -0.0083521)
(14.1727 -0.074029 -0.00919629)
(14.1477 -0.0733183 -0.0096006)
(14.1256 -0.0709847 -0.0096862)
(14.106 -0.067661 -0.00954983)
(14.0889 -0.0638079 -0.00926777)
(14.0739 -0.0597485 -0.00889802)
(14.0608 -0.0557062 -0.00848453)
(14.0495 -0.0518387 -0.00806074)
(14.0396 -0.0482602 -0.00765194)
(14.031 -0.0450629 -0.0072787)
(14.0237 -0.0423614 -0.00695622)
(14.0173 -0.0402192 -0.00670416)
(14.0124 -0.0390245 -0.00652986)
(14.008 -0.0375795 -0.00633681)
(13.9971 0.0154332 0.00354878)
(14.0165 0.069592 0.0142666)
(14.0623 0.129934 0.0256391)
(14.1294 0.177419 0.0346168)
(14.2079 0.202793 0.0396478)
(14.2847 0.202704 0.0402761)
(14.3477 0.180848 0.0372153)
(14.3902 0.14514 0.0317013)
(14.4115 0.104352 0.0250973)
(14.4143 0.0649463 0.0184088)
(14.4033 0.030711 0.0122673)
(14.3829 0.0032381 0.00700142)
(14.3568 -0.0173786 0.00271533)
(14.3281 -0.0318921 -0.000625734)
(14.2986 -0.0413964 -0.00312736)
(14.2699 -0.0470139 -0.00492152)
(14.2426 -0.0497461 -0.0061422)
(14.2172 -0.0504221 -0.00691277)
(14.1939 -0.0496932 -0.00734039)
(14.1728 -0.0480542 -0.00751486)
(14.1537 -0.0458721 -0.00750978)
(14.1366 -0.0434122 -0.0073838)
(14.1213 -0.0408627 -0.00718299)
(14.1076 -0.0383623 -0.00694381)
(14.0954 -0.0360171 -0.00669427)
(14.0844 -0.0339206 -0.00645892)
(14.0747 -0.0322103 -0.00625301)
(14.0657 -0.0309646 -0.00610675)
(14.0585 -0.0308117 -0.00601001)
(14.05 -0.0309331 -0.0059826)
(13.9962 0.00607729 0.00205681)
(14.0106 0.0399805 0.0123768)
(14.0518 0.076099 0.0231792)
(14.1148 0.105441 0.0318554)
(14.1912 0.123025 0.0372492)
(14.2697 0.126359 0.0389621)
(14.3394 0.11653 0.0373888)
(14.3929 0.0975084 0.0334067)
(14.4274 0.0741228 0.0280593)
(14.4438 0.0503387 0.02223)
(14.4452 0.0287835 0.0165521)
(14.4352 0.0108133 0.0114182)
(14.4172 -0.00319532 0.0070221)
(14.3942 -0.0134798 0.00341601)
(14.3687 -0.0205788 0.000563224)
(14.3422 -0.0251239 -0.00161859)
(14.316 -0.0277196 -0.00323025)
(14.2907 -0.0288883 -0.0043747)
(14.2668 -0.0290524 -0.00514783)
(14.2445 -0.0285399 -0.00563424)
(14.2239 -0.0275974 -0.00590595)
(14.205 -0.0264077 -0.0060228)
(14.1878 -0.0251001 -0.0060331)
(14.172 -0.0237765 -0.00597661)
(14.1576 -0.0225113 -0.00588376)
(14.1444 -0.0213779 -0.00578293)
(14.1323 -0.0205132 -0.00568902)
(14.1207 -0.0199219 -0.00563855)
(14.1112 -0.0204603 -0.00559936)
(14.0972 -0.0220697 -0.00571622)
(13.9984 0.000579426 0.000932494)
(14.009 0.0155418 0.0113559)
(14.0438 0.0320398 0.0221796)
(14.1007 0.0470087 0.0312177)
(14.1732 0.0579684 0.0375556)
(14.2525 0.0631775 0.0407339)
(14.329 0.0622223 0.0408333)
(14.3944 0.0561328 0.0383972)
(14.444 0.0467617 0.0342191)
(14.4767 0.0359738 0.0290877)
(14.4935 0.0252507 0.0236538)
(14.4969 0.0155683 0.018391)
(14.4899 0.00742447 0.0135984)
(14.4754 0.000958063 0.00942862)
(14.4559 -0.00391676 0.00592993)
(14.4335 -0.00740794 0.00308179)
(14.4097 -0.00976789 0.000824084)
(14.3855 -0.0112451 -0.000922023)
(14.3616 -0.0120593 -0.00224022)
(14.3387 -0.0123932 -0.003211)
(14.3169 -0.0123915 -0.00390702)
(14.2964 -0.0121664 -0.00439167)
(14.2771 -0.0118017 -0.00471833)
(14.2592 -0.0113619 -0.00493231)
(14.2425 -0.0108992 -0.00506951)
(14.2268 -0.0104495 -0.00516374)
(14.2123 -0.0101063 -0.00523187)
(14.1975 -0.00984268 -0.00531988)
(14.1862 -0.0100607 -0.00536411)
(14.1631 -0.0115835 -0.00559038)
(13.9144 0.05998 0.303516)
(13.5038 0.203269 1.02944)
(12.6342 0.222259 2.04919)
(10.7504 0.267148 4.5364)
(1.32154 -0.0269585 -0.782046)
(8.26347 -0.15809 -2.7101)
(9.2033 -0.100443 -1.74468)
(9.97578 -0.069716 -1.20173)
(10.6394 -0.0501269 -0.860687)
(11.1955 -0.0366615 -0.628887)
(11.6522 -0.0271797 -0.466246)
(12.0222 -0.020435 -0.350644)
(12.3202 -0.0155917 -0.267635)
(12.5602 -0.0120775 -0.207388)
(12.7996 -0.018123 -0.1649)
(13.0172 -0.0266598 -0.135099)
(13.1266 -0.0219264 -0.111205)
(13.2174 -0.0181404 -0.0921303)
(13.2943 -0.0151513 -0.0769671)
(13.36 -0.0127773 -0.0649075)
(13.4163 -0.0108666 -0.0552053)
(13.4649 -0.00931008 -0.0473004)