# Residuals   
# Time        	p             	Ux            	Uy            	Uz            
0             	N/A	N/A
1             	1.000000e+00	1.000000e+00	1.000000e+00	1.000000e+00
2             	1.253228e-01	3.446032e-01	4.912393e-01	4.885080e-01
3             	6.076874e-02	7.778991e-02	2.119534e-01	2.322229e-01
4             	6.380025e-02	5.860275e-02	1.679068e-01	1.938115e-01
5             	6.682666e-02	3.375985e-02	7.007277e-02	8.166346e-02
6             	8.037766e-02	2.210494e-02	4.999838e-02	5.784220e-02
7             	1.082414e-01	1.567044e-02	4.340630e-02	5.060880e-02
8             	9.151076e-02	6.090766e-02	4.035307e-01	2.412429e-01
9             	7.456578e-02	3.404463e-02	1.575229e-01	1.816617e-01
10            	3.882804e-01	2.791927e-02	8.568056e-02	1.596265e-01
11            	7.252484e-01	7.632800e-01	7.716683e-01	6.433641e-01
12            	4.220233e-01	5.093645e-01	5.382235e-01	5.716569e-01
13            	4.311842e-02	4.455106e-01	4.944113e-01	5.382684e-01
14            	5.627627e-02	3.993359e-01	4.036804e-01	4.445528e-01
15            	5.477492e-02	3.588730e-01	3.827399e-01	4.003287e-01
16            	8.208315e-02	3.454944e-01	3.378102e-01	3.927915e-01
17            	1.237447e-01	3.215251e-01	3.156508e-01	4.027228e-01
18            	1.264149e-01	3.148352e-01	3.076024e-01	3.819178e-01
19            	1.149944e-01	3.021070e-01	3.101412e-01	3.691283e-01
20            	1.438715e-01	2.838123e-01	3.165264e-01	3.689960e-01
21            	1.512222e-01	2.573738e-01	2.934911e-01	3.611467e-01
22            	1.369859e-01	2.393851e-01	2.856676e-01	3.406791e-01
23            	1.295106e-01	2.188641e-01	2.687479e-01	3.166299e-01
24            	1.199142e-01	2.066272e-01	2.517019e-01	2.893998e-01
25            	1.185103e-01	1.995239e-01	2.380370e-01	2.603847e-01
26            	1.207482e-01	1.825716e-01	2.332588e-01	2.346829e-01
27            	1.170823e-01	1.637557e-01	2.250847e-01	2.159706e-01
28            	1.108330e-01	1.442729e-01	2.159564e-01	2.066477e-01
29            	1.049594e-01	1.272222e-01	2.050536e-01	2.024957e-01
30            	1.043704e-01	1.133409e-01	1.977986e-01	1.991796e-01
31            	1.087262e-01	1.079186e-01	1.934857e-01	1.927934e-01
32            	1.134895e-01	1.067994e-01	1.878130e-01	1.850149e-01
33            	1.126755e-01	1.049376e-01	1.801258e-01	1.771564e-01
34            	1.036189e-01	1.014187e-01	1.691278e-01	1.708822e-01
35            	9.424568e-02	9.794343e-02	1.564231e-01	1.691286e-01
36            	8.677444e-02	9.333189e-02	1.428520e-01	1.651622e-01
37            	7.957414e-02	8.729973e-02	1.300003e-01	1.563493e-01
38            	7.617090e-02	8.044381e-02	1.191439e-01	1.473861e-01
39            	7.518429e-02	7.207504e-02	1.113241e-01	1.412750e-01
40            	7.563243e-02	6.322863e-02	1.055845e-01	1.375537e-01
41            	7.472290e-02	5.621599e-02	9.975250e-02	1.309937e-01
42            	7.410729e-02	5.156300e-02	9.568558e-02	1.227798e-01
43            	7.267049e-02	4.908955e-02	9.377652e-02	1.152941e-01
44            	6.790649e-02	5.002855e-02	9.234108e-02	1.120282e-01
45            	6.385977e-02	5.401069e-02	8.740169e-02	1.110351e-01
46            	5.829156e-02	5.870150e-02	8.229104e-02	1.107078e-01
47            	5.235923e-02	5.933443e-02	7.829744e-02	1.066320e-01
48            	5.371903e-02	4.959537e-02	7.731644e-02	1.053601e-01
49            	5.520457e-02	4.257846e-02	7.567166e-02	9.837556e-02
50            	5.689947e-02	3.728134e-02	7.224991e-02	8.982948e-02
51            	5.416887e-02	3.179992e-02	6.739279e-02	8.117117e-02
52            	5.098532e-02	2.800670e-02	6.332788e-02	7.443226e-02
53            	4.641924e-02	2.522854e-02	5.945770e-02	6.906344e-02
54            	4.129671e-02	2.347932e-02	5.563817e-02	6.395261e-02
55            	3.660187e-02	2.251432e-02	5.186392e-02	5.930479e-02
56            	3.270596e-02	2.199524e-02	4.800711e-02	5.518976e-02
57            	2.984842e-02	2.146260e-02	4.444427e-02	5.139578e-02
58            	2.793220e-02	2.085916e-02	4.142664e-02	4.824449e-02
59            	2.641185e-02	2.013578e-02	3.874862e-02	4.540869e-02
60            	2.500039e-02	1.893244e-02	3.660003e-02	4.324712e-02
61            	2.380763e-02	1.825418e-02	3.462810e-02	4.077134e-02
62            	2.300461e-02	1.802550e-02	3.286294e-02	3.866592e-02
63            	2.129219e-02	1.811673e-02	3.281829e-02	3.806534e-02
64            	2.134048e-02	1.789923e-02	3.027522e-02	3.598614e-02
65            	1.899681e-02	1.764485e-02	2.999247e-02	3.433635e-02
66            	1.863778e-02	1.664375e-02	2.783444e-02	3.279577e-02
67            	1.790041e-02	1.570522e-02	2.657164e-02	3.114964e-02
68            	1.746615e-02	1.484045e-02	2.536995e-02	2.975566e-02
69            	1.699399e-02	1.409622e-02	2.382092e-02	2.853690e-02
70            	1.663643e-02	1.351324e-02	2.307246e-02	2.750064e-02
71            	1.622548e-02	1.306461e-02	2.185381e-02	2.666757e-02
72            	1.737316e-02	1.268010e-02	2.101476e-02	2.599745e-02
73            	1.688035e-02	1.573715e-02	4.701660e-02	2.848091e-02
74            	1.758517e-02	1.446264e-02	3.623512e-02	3.901964e-02
75            	1.694880e-02	1.317075e-02	2.819468e-02	3.265197e-02
76            	1.639935e-02	1.241752e-02	2.322824e-02	2.901092e-02
77            	1.584793e-02	1.185132e-02	2.211556e-02	2.738497e-02
78            	1.570520e-02	1.162888e-02	2.097973e-02	2.583449e-02
79            	1.549772e-02	1.146839e-02	2.025310e-02	2.454880e-02
80            	1.515842e-02	1.135508e-02	1.957464e-02	2.331434e-02
81            	1.506284e-02	1.135241e-02	1.925679e-02	2.256612e-02
82            	1.520209e-02	1.144382e-02	1.902148e-02	2.195883e-02
83            	1.485552e-02	1.156320e-02	1.852420e-02	2.152463e-02
84            	1.488965e-02	1.170568e-02	1.834838e-02	2.096906e-02
85            	1.469926e-02	1.188652e-02	1.792241e-02	2.049877e-02
86            	1.440318e-02	1.224365e-02	1.761830e-02	1.998592e-02
87            	1.410398e-02	1.300369e-02	1.761774e-02	1.958644e-02
88            	1.405882e-02	1.362874e-02	1.769211e-02	1.913367e-02
89            	1.407958e-02	1.408118e-02	1.768551e-02	1.891061e-02
90            	1.393254e-02	1.452906e-02	1.768794e-02	1.877825e-02
91            	1.398015e-02	1.528901e-02	1.774472e-02	1.869603e-02
92            	1.389691e-02	1.606923e-02	1.792527e-02	1.853609e-02
93            	1.368367e-02	1.670857e-02	1.807055e-02	1.859105e-02
94            	1.373099e-02	1.752919e-02	1.846438e-02	1.874706e-02
95            	1.418488e-02	1.830138e-02	1.864796e-02	1.882405e-02
96            	1.377816e-02	1.914649e-02	1.912144e-02	1.920433e-02
97            	1.394418e-02	2.003740e-02	1.944707e-02	1.948893e-02
98            	1.444460e-02	2.082411e-02	1.990032e-02	2.011983e-02
99            	1.529982e-02	2.159228e-02	2.064355e-02	2.100551e-02
100           	1.698121e-02	2.236657e-02	2.127098e-02	2.237718e-02
101           	1.814913e-02	2.180275e-02	2.123951e-02	2.424458e-02
102           	1.952841e-02	1.941392e-02	2.054784e-02	2.555698e-02
103           	1.988173e-02	1.761827e-02	2.004818e-02	2.625473e-02
104           	2.040232e-02	1.579530e-02	1.946477e-02	2.630469e-02
105           	2.024484e-02	1.463092e-02	1.836590e-02	2.585890e-02
106           	2.062325e-02	1.392634e-02	1.743166e-02	2.530584e-02
107           	2.135037e-02	1.360672e-02	1.709927e-02	2.480507e-02
108           	2.175537e-02	1.364796e-02	1.679634e-02	2.439794e-02
109           	2.195086e-02	1.382622e-02	1.637665e-02	2.408054e-02
110           	2.231626e-02	1.411758e-02	1.588132e-02	2.351209e-02
111           	2.239915e-02	1.440506e-02	1.556496e-02	2.291682e-02
112           	2.230942e-02	1.469378e-02	1.543562e-02	2.225943e-02
113           	2.204570e-02	1.494241e-02	1.508831e-02	2.184391e-02
114           	2.219515e-02	1.511549e-02	1.479486e-02	2.160266e-02
115           	2.241642e-02	1.521034e-02	1.455356e-02	2.116905e-02
116           	2.229996e-02	1.525434e-02	1.406101e-02	2.073759e-02
117           	2.164674e-02	1.522551e-02	1.355379e-02	2.064931e-02
118           	2.083023e-02	1.507770e-02	1.285083e-02	2.025262e-02
119           	1.997798e-02	1.481229e-02	1.210998e-02	1.976473e-02
120           	1.923454e-02	1.436736e-02	1.136805e-02	1.889883e-02
121           	1.861750e-02	1.375101e-02	1.059780e-02	1.798153e-02
122           	1.777430e-02	1.298670e-02	9.765786e-03	1.686289e-02
123           	1.641457e-02	1.240121e-02	8.947700e-03	1.583398e-02
124           	1.530977e-02	1.201537e-02	8.282285e-03	1.507395e-02
125           	1.454259e-02	1.169440e-02	7.767662e-03	1.446690e-02
126           	1.377580e-02	1.139940e-02	7.437247e-03	1.413444e-02
127           	1.306428e-02	1.117280e-02	7.172157e-03	1.395371e-02
128           	1.251166e-02	1.099139e-02	6.996816e-03	1.389133e-02
129           	1.220606e-02	1.079011e-02	6.704953e-03	1.358516e-02
130           	1.192484e-02	1.063437e-02	6.512260e-03	1.336275e-02
131           	1.182095e-02	1.050745e-02	6.368830e-03	1.317563e-02
132           	1.185681e-02	1.044342e-02	6.335562e-03	1.307039e-02
133           	1.167602e-02	1.032959e-02	6.126807e-03	1.279012e-02
134           	1.152862e-02	1.024264e-02	6.064806e-03	1.258566e-02
135           	1.135550e-02	1.016617e-02	6.093987e-03	1.244869e-02
136           	1.133614e-02	1.013591e-02	6.180301e-03	1.236401e-02
137           	1.127714e-02	1.017600e-02	6.252309e-03	1.231912e-02
138           	1.135968e-02	1.023825e-02	6.466772e-03	1.233011e-02
139           	1.165204e-02	1.031711e-02	6.805362e-03	1.247874e-02
140           	1.199730e-02	1.043222e-02	7.151087e-03	1.272875e-02
141           	1.235260e-02	1.058627e-02	7.630490e-03	1.310247e-02
142           	1.264886e-02	1.079501e-02	8.139411e-03	1.340058e-02
143           	1.306823e-02	1.098278e-02	8.642012e-03	1.372466e-02
144           	1.349659e-02	1.121009e-02	9.144808e-03	1.406968e-02
145           	1.375561e-02	1.140987e-02	9.524224e-03	1.441168e-02
146           	1.386633e-02	1.160942e-02	9.697113e-03	1.473773e-02
147           	1.370229e-02	1.183888e-02	9.720550e-03	1.492321e-02
148           	1.352781e-02	1.194494e-02	9.731905e-03	1.481025e-02
149           	1.332309e-02	1.198445e-02	9.732353e-03	1.458848e-02
150           	1.310519e-02	1.199552e-02	9.741838e-03	1.441361e-02
151           	1.284486e-02	1.199756e-02	9.635492e-03	1.441562e-02
152           	1.268723e-02	1.197527e-02	9.696065e-03	1.435747e-02
153           	1.242502e-02	1.196717e-02	9.628294e-03	1.437791e-02
154           	1.226012e-02	1.195416e-02	9.699562e-03	1.429944e-02
155           	1.199334e-02	1.195243e-02	9.636554e-03	1.431261e-02
156           	1.179778e-02	1.194718e-02	9.734759e-03	1.425444e-02
157           	1.162153e-02	1.194016e-02	9.771815e-03	1.423229e-02
158           	1.143252e-02	1.194775e-02	9.687635e-03	1.428267e-02
159           	1.132220e-02	1.193914e-02	9.757015e-03	1.427512e-02
160           	1.127799e-02	1.193559e-02	9.798793e-03	1.431179e-02
161           	1.126788e-02	1.193166e-02	9.841177e-03	1.434791e-02
162           	1.131284e-02	1.194803e-02	9.866721e-03	1.440662e-02
163           	1.142585e-02	1.199532e-02	9.896611e-03	1.430165e-02
164           	1.157085e-02	1.203523e-02	9.930215e-03	1.430928e-02
165           	1.172653e-02	1.209140e-02	9.984547e-03	1.438549e-02
166           	1.189969e-02	1.214403e-02	1.007916e-02	1.449627e-02
167           	1.204287e-02	1.220109e-02	1.017853e-02	1.464674e-02
168           	1.220199e-02	1.227247e-02	1.027892e-02	1.478543e-02
169           	1.239001e-02	1.234381e-02	1.035826e-02	1.493097e-02
170           	1.252117e-02	1.242351e-02	1.044065e-02	1.502772e-02
171           	1.353619e-02	1.233974e-02	1.058525e-02	1.490733e-02
172           	1.287676e-02	1.282748e-02	1.094688e-02	1.552683e-02
173           	1.371440e-02	1.259662e-02	1.080242e-02	1.511645e-02
174           	1.308464e-02	1.305276e-02	1.108874e-02	1.579593e-02
175           	1.391446e-02	1.284115e-02	1.095854e-02	1.538111e-02
176           	1.341530e-02	1.322395e-02	1.130000e-02	1.590175e-02
177           	1.431986e-02	1.302350e-02	1.121915e-02	1.554206e-02
178           	1.364888e-02	1.343511e-02	1.159327e-02	1.601986e-02
179           	1.443528e-02	1.325243e-02	1.148678e-02	1.570075e-02
180           	1.403848e-02	1.368168e-02	1.183883e-02	1.608560e-02
181           	1.474637e-02	1.353703e-02	1.179169e-02	1.585037e-02
182           	1.411547e-02	1.392633e-02	1.217003e-02	1.614965e-02
183           	1.488934e-02	1.375961e-02	1.207811e-02	1.585610e-02
184           	1.428453e-02	1.409153e-02	1.230914e-02	1.609586e-02
185           	1.529593e-02	1.396042e-02	1.226880e-02	1.586288e-02
186           	1.478418e-02	1.433728e-02	1.251338e-02	1.615714e-02
187           	1.587522e-02	1.427104e-02	1.253721e-02	1.592815e-02
188           	1.538291e-02	1.469172e-02	1.276062e-02	1.628598e-02
189           	1.635813e-02	1.462206e-02	1.279522e-02	1.612225e-02
190           	1.571060e-02	1.508223e-02	1.311618e-02	1.651740e-02
191           	1.688276e-02	1.505079e-02	1.318404e-02	1.639575e-02
192           	1.656346e-02	1.565250e-02	1.354040e-02	1.691253e-02
193           	1.776310e-02	1.557301e-02	1.360746e-02	1.678081e-02
194           	1.735995e-02	1.625430e-02	1.411983e-02	1.739221e-02
195           	1.859245e-02	1.619096e-02	1.417256e-02	1.732104e-02
196           	1.836792e-02	1.702150e-02	1.478574e-02	1.801171e-02
197           	1.978297e-02	1.687189e-02	1.485297e-02	1.794120e-02
198           	1.993955e-02	1.778787e-02	1.562207e-02	1.869561e-02
199           	2.114728e-02	1.762159e-02	1.562299e-02	1.861436e-02
200           	2.148901e-02	1.858316e-02	1.652540e-02	1.946444e-02
201           	2.232314e-02	1.879959e-02	1.675720e-02	1.977581e-02
202           	2.290758e-02	1.909173e-02	1.726744e-02	2.011816e-02
203           	2.366119e-02	1.938542e-02	1.775142e-02	2.042812e-02
204           	2.451983e-02	1.950137e-02	1.816076e-02	2.066857e-02
205           	2.541732e-02	1.925387e-02	1.818449e-02	2.062098e-02
206           	2.557156e-02	1.938410e-02	1.853653e-02	2.064118e-02
207           	2.617563e-02	1.882705e-02	1.804125e-02	2.028605e-02
208           	2.527888e-02	1.866083e-02	1.787878e-02	2.003732e-02
209           	2.529101e-02	1.814722e-02	1.717225e-02	1.963794e-02
210           	2.445176e-02	1.763751e-02	1.640662e-02	1.949453e-02
211           	2.402430e-02	1.706258e-02	1.561696e-02	1.891442e-02
212           	2.266767e-02	1.615785e-02	1.477189e-02	1.810019e-02
213           	2.112662e-02	1.521325e-02	1.378834e-02	1.704126e-02
214           	1.970772e-02	1.442448e-02	1.278729e-02	1.608141e-02
215           	1.837475e-02	1.375703e-02	1.206568e-02	1.531863e-02
216           	1.719366e-02	1.316670e-02	1.159131e-02	1.471087e-02
217           	1.619530e-02	1.263604e-02	1.122224e-02	1.417857e-02
218           	1.529425e-02	1.215406e-02	1.094538e-02	1.368303e-02
219           	1.468044e-02	1.169993e-02	1.071224e-02	1.322699e-02
220           	1.437010e-02	1.127042e-02	1.048321e-02	1.277921e-02
221           	1.383880e-02	1.084640e-02	1.026202e-02	1.241974e-02
222           	1.325085e-02	1.042971e-02	1.004961e-02	1.211712e-02
223           	1.265432e-02	1.003376e-02	9.838346e-03	1.191271e-02
224           	1.234174e-02	9.653362e-03	9.662411e-03	1.175794e-02
225           	1.205330e-02	9.298237e-03	9.488163e-03	1.162080e-02
226           	1.171300e-02	8.956657e-03	9.338734e-03	1.147013e-02
227           	1.140660e-02	8.631264e-03	9.209626e-03	1.131742e-02
228           	1.100721e-02	8.310273e-03	9.099843e-03	1.115709e-02
229           	1.090271e-02	7.997564e-03	9.018706e-03	1.103583e-02
230           	1.085031e-02	7.717404e-03	8.967597e-03	1.089930e-02
231           	1.067648e-02	7.458144e-03	8.919797e-03	1.072376e-02
232           	1.054389e-02	7.210421e-03	8.882581e-03	1.050745e-02
233           	1.023691e-02	6.969358e-03	8.844723e-03	1.031524e-02
234           	1.022836e-02	6.739645e-03	8.818862e-03	1.016635e-02
235           	1.018270e-02	6.537832e-03	8.805492e-03	1.000070e-02
236           	1.014332e-02	6.353847e-03	8.798357e-03	9.795361e-03
237           	1.005240e-02	6.181676e-03	8.790691e-03	9.581215e-03
238           	9.832889e-03	6.005386e-03	8.790095e-03	9.410266e-03
239           	9.945651e-03	5.845635e-03	8.798806e-03	9.280975e-03
240           	1.000637e-02	5.710121e-03	8.811648e-03	9.116275e-03
241           	1.012479e-02	5.585459e-03	8.829842e-03	8.931972e-03
242           	9.779981e-03	5.447347e-03	8.844735e-03	8.739971e-03
243           	9.762109e-03	5.313341e-03	8.862498e-03	8.622137e-03
244           	9.929573e-03	5.196024e-03	8.899645e-03	8.488681e-03
245           	1.016133e-02	5.092340e-03	8.925231e-03	8.326557e-03
246           	9.797170e-03	4.967598e-03	8.941427e-03	8.123165e-03
247           	9.729791e-03	4.840802e-03	8.940367e-03	7.984433e-03
248           	1.008318e-02	4.723197e-03	8.952411e-03	7.862561e-03
249           	1.017829e-02	4.616243e-03	8.947839e-03	7.708410e-03
250           	9.685186e-03	4.494565e-03	8.932123e-03	7.505328e-03
251           	9.770976e-03	4.370324e-03	8.895357e-03	7.362865e-03
252           	1.007127e-02	4.249911e-03	8.878432e-03	7.253020e-03
253           	9.986438e-03	4.141951e-03	8.835243e-03	7.085643e-03
254           	9.647456e-03	4.026008e-03	8.780776e-03	6.896209e-03
255           	9.799506e-03	3.908096e-03	8.675748e-03	6.758691e-03
256           	9.977091e-03	3.789127e-03	8.554170e-03	6.624442e-03
257           	9.618101e-03	3.683496e-03	8.383370e-03	6.509003e-03
258           	9.319135e-03	3.571477e-03	8.186931e-03	6.363229e-03
259           	9.761236e-03	3.446272e-03	8.022909e-03	6.265975e-03
260           	9.524413e-03	3.338162e-03	7.850032e-03	6.116066e-03
261           	8.962148e-03	3.232450e-03	7.670228e-03	5.913057e-03
262           	9.402273e-03	3.118442e-03	7.478860e-03	5.762692e-03
263           	9.308202e-03	3.009678e-03	7.294523e-03	5.634569e-03
264           	8.725713e-03	2.904581e-03	7.115089e-03	5.437458e-03
265           	8.978331e-03	2.808413e-03	6.902260e-03	5.287712e-03
266           	9.215532e-03	2.704726e-03	6.716311e-03	5.188537e-03
267           	8.573191e-03	2.611588e-03	6.538255e-03	5.029466e-03
268           	8.506327e-03	2.527137e-03	6.322096e-03	4.862213e-03
269           	9.022363e-03	2.430673e-03	6.138731e-03	4.775471e-03
270           	8.315100e-03	2.348061e-03	5.962041e-03	4.633085e-03
271           	7.989447e-03	2.269792e-03	5.747604e-03	4.461940e-03
272           	8.605018e-03	2.186424e-03	5.563415e-03	4.376391e-03
273           	7.987606e-03	2.108121e-03	5.392576e-03	4.264104e-03
274           	7.588238e-03	2.044207e-03	5.246691e-03	4.062542e-03
275           	8.086962e-03	1.983825e-03	5.102206e-03	3.939752e-03
276           	7.873366e-03	1.919871e-03	4.971885e-03	3.850262e-03
277           	7.062373e-03	1.865568e-03	4.833470e-03	3.710778e-03
278           	7.114101e-03	1.818281e-03	4.688018e-03	3.625268e-03
279           	7.621271e-03	1.763519e-03	4.617838e-03	3.657079e-03
280           	6.827343e-03	1.715340e-03	4.590761e-03	3.618574e-03
281           	6.447940e-03	1.668401e-03	4.492961e-03	3.500773e-03
282           	6.993955e-03	1.626052e-03	4.398856e-03	3.446865e-03
283           	6.326810e-03	1.585625e-03	4.343510e-03	3.398083e-03
284           	5.304601e-03	1.534173e-03	4.187454e-03	3.148252e-03
285           	6.196843e-03	1.584206e-03	4.141090e-03	3.201109e-03
286           	5.452517e-03	1.520265e-03	4.127364e-03	3.144493e-03
287           	4.701667e-03	1.364884e-03	3.884776e-03	2.868463e-03
288           	4.088361e-03	1.215433e-03	3.550747e-03	2.475361e-03
289           	3.521725e-03	1.098085e-03	3.212101e-03	2.144523e-03
290           	2.995285e-03	1.014351e-03	2.905587e-03	1.931573e-03
291           	2.581675e-03	9.456290e-04	2.629029e-03	1.763023e-03
292           	2.243547e-03	8.859799e-04	2.381860e-03	1.624162e-03
293           	2.038107e-03	8.295773e-04	2.169577e-03	1.477982e-03
294           	1.756828e-03	7.947840e-04	1.977422e-03	1.421870e-03
295           	1.616744e-03	7.513571e-04	1.815570e-03	1.305294e-03
296           	1.435630e-03	7.279911e-04	1.675068e-03	1.265801e-03
297           	1.318654e-03	6.909939e-04	1.551838e-03	1.169713e-03
298           	1.177841e-03	6.714650e-04	1.447401e-03	1.137969e-03
299           	1.091087e-03	6.400203e-04	1.343179e-03	1.061184e-03
300           	9.796438e-04	6.227101e-04	1.241717e-03	1.039438e-03
301           	9.128012e-04	5.958021e-04	1.162204e-03	9.689243e-04
302           	8.326939e-04	5.829612e-04	1.096350e-03	9.464929e-04
303           	7.856967e-04	5.595093e-04	1.034146e-03	8.885656e-04
304           	7.213428e-04	5.489838e-04	9.842722e-04	8.734933e-04
305           	6.850961e-04	5.279670e-04	9.323759e-04	8.237327e-04
306           	6.326675e-04	5.184169e-04	8.905882e-04	8.108584e-04
307           	5.882489e-04	5.027911e-04	8.481812e-04	7.787858e-04
308           	5.537972e-04	4.881901e-04	8.114294e-04	7.493249e-04
309           	5.252079e-04	4.754713e-04	7.755246e-04	7.221516e-04
310           	4.986684e-04	4.630839e-04	7.450117e-04	6.979668e-04
311           	4.742691e-04	4.513230e-04	7.140770e-04	6.749432e-04
312           	4.521138e-04	4.397613e-04	6.875351e-04	6.538803e-04
313           	4.322931e-04	4.283766e-04	6.598481e-04	6.331296e-04
314           	4.143664e-04	4.174618e-04	6.364970e-04	6.139746e-04
315           	3.985899e-04	4.067884e-04	6.116352e-04	5.956800e-04
316           	3.854926e-04	3.968692e-04	5.913381e-04	5.793037e-04
317           	3.768438e-04	3.872831e-04	5.703166e-04	5.642562e-04
318           	3.639130e-04	3.782111e-04	5.524864e-04	5.506467e-04
319           	3.540810e-04	3.690907e-04	5.332100e-04	5.365683e-04
320           	3.448513e-04	3.604263e-04	5.241749e-04	5.231809e-04
321           	3.348693e-04	3.518486e-04	5.042861e-04	5.113115e-04
322           	3.271980e-04	3.438244e-04	4.943923e-04	4.988346e-04
323           	3.176320e-04	3.356766e-04	4.812240e-04	4.867596e-04
324           	3.107585e-04	3.277360e-04	4.687554e-04	4.753508e-04
325           	3.021130e-04	3.201310e-04	4.548044e-04	4.640022e-04
326           	2.954086e-04	3.125590e-04	4.425239e-04	4.532762e-04
327           	2.891961e-04	3.053181e-04	4.296424e-04	4.422180e-04
328           	2.865952e-04	2.984809e-04	4.195191e-04	4.331154e-04
329           	2.789358e-04	2.917522e-04	4.082990e-04	4.236440e-04
330           	2.753623e-04	2.851533e-04	3.990975e-04	4.147930e-04
331           	2.704558e-04	2.788772e-04	3.894804e-04	4.062371e-04
332           	2.675589e-04	2.726838e-04	3.819117e-04	3.985305e-04
333           	2.644914e-04	2.672126e-04	3.737242e-04	3.919731e-04
334           	2.616365e-04	2.620003e-04	3.668702e-04	3.864843e-04
335           	2.573749e-04	2.565686e-04	3.585164e-04	3.799892e-04
336           	2.540534e-04	2.513734e-04	3.519405e-04	3.745436e-04
337           	2.501810e-04	2.457379e-04	3.430496e-04	3.671141e-04
338           	2.464092e-04	2.404204e-04	3.370943e-04	3.608753e-04
339           	2.446793e-04	2.351906e-04	3.290917e-04	3.542293e-04
340           	2.412779e-04	2.300523e-04	3.235910e-04	3.485426e-04
341           	2.404003e-04	2.251730e-04	3.166936e-04	3.429463e-04
342           	2.375977e-04	2.205307e-04	3.119971e-04	3.384098e-04
343           	2.348106e-04	2.155848e-04	3.054798e-04	3.329084e-04
344           	2.335603e-04	2.110797e-04	3.016419e-04	3.272780e-04
345           	2.309925e-04	2.065600e-04	2.954320e-04	3.221688e-04
346           	2.294673e-04	2.024046e-04	2.915918e-04	3.175807e-04
347           	2.281732e-04	1.982793e-04	2.859935e-04	3.129342e-04
348           	2.260739e-04	1.944755e-04	2.821845e-04	3.091977e-04
349           	2.252480e-04	1.905191e-04	2.768031e-04	3.046156e-04
350           	2.247409e-04	1.868659e-04	2.734701e-04	3.010878e-04
351           	2.225110e-04	1.831542e-04	2.689083e-04	2.971157e-04
352           	2.240131e-04	1.798156e-04	2.666807e-04	2.936566e-04
353           	2.218306e-04	1.766823e-04	2.637026e-04	2.910201e-04
354           	2.198290e-04	1.733071e-04	2.612398e-04	2.872649e-04
355           	2.191973e-04	1.703059e-04	2.584761e-04	2.840295e-04
356           	2.168846e-04	1.671367e-04	2.562861e-04	2.803550e-04
357           	2.157245e-04	1.640680e-04	2.530559e-04	2.768013e-04
358           	2.130521e-04	1.609354e-04	2.506836e-04	2.733349e-04
359           	2.111296e-04	1.576797e-04	2.469093e-04	2.696135e-04
360           	2.093126e-04	1.546121e-04	2.445214e-04	2.660072e-04
361           	2.083205e-04	1.514397e-04	2.402216e-04	2.628229e-04
362           	2.089638e-04	1.489733e-04	2.383207e-04	2.610786e-04
363           	2.108000e-04	1.466633e-04	2.358515e-04	2.629326e-04
364           	2.088088e-04	1.444529e-04	2.350274e-04	2.644423e-04
365           	2.097668e-04	1.420802e-04	2.346694e-04	2.644269e-04
366           	2.084628e-04	1.398092e-04	2.333038e-04	2.639746e-04
367           	2.074289e-04	1.373269e-04	2.318996e-04	2.616711e-04
368           	2.060727e-04	1.350237e-04	2.320098e-04	2.594394e-04
369           	2.040400e-04	1.325725e-04	2.292694e-04	2.564591e-04
370           	2.023866e-04	1.301550e-04	2.273064e-04	2.535279e-04
371           	2.001961e-04	1.277995e-04	2.241676e-04	2.505973e-04
372           	1.983430e-04	1.253803e-04	2.218161e-04	2.476610e-04
373           	1.976627e-04	1.229827e-04	2.189470e-04	2.442723e-04
374           	1.990903e-04	1.208679e-04	2.175702e-04	2.417454e-04
375           	1.974466e-04	1.188030e-04	2.156622e-04	2.395001e-04
376           	1.979836e-04	1.171241e-04	2.150421e-04	2.377603e-04
377           	2.009213e-04	1.149547e-04	2.132343e-04	2.360498e-04
378           	2.047525e-04	1.145051e-04	2.135575e-04	2.357786e-04
379           	2.035656e-04	1.124633e-04	2.130352e-04	2.342169e-04
380           	2.044146e-04	1.118191e-04	2.129151e-04	2.332807e-04
381           	2.117998e-04	1.098711e-04	2.122592e-04	2.323993e-04
382           	2.043628e-04	1.080522e-04	2.104451e-04	2.305268e-04
383           	2.064218e-04	1.076388e-04	2.091112e-04	2.297072e-04
384           	2.095248e-04	1.053945e-04	2.069557e-04	2.270776e-04
385           	2.064196e-04	1.036235e-04	2.047265e-04	2.262905e-04
386           	2.062949e-04	1.030161e-04	2.041016e-04	2.255369e-04
387           	2.150547e-04	1.012554e-04	2.027207e-04	2.255340e-04
388           	2.057157e-04	9.975159e-05	2.007344e-04	2.237695e-04
389           	2.086733e-04	9.901198e-05	1.975156e-04	2.219449e-04
390           	2.111322e-04	9.732771e-05	1.968047e-04	2.198770e-04
391           	2.143353e-04	9.606481e-05	1.960205e-04	2.202186e-04
392           	2.160685e-04	9.518786e-05	1.960744e-04	2.194280e-04
393           	2.161286e-04	9.559667e-05	1.960776e-04	2.220625e-04
394           	2.153369e-04	9.434393e-05	1.953918e-04	2.210571e-04
395           	2.170128e-04	9.326267e-05	1.941108e-04	2.212077e-04
396           	2.149256e-04	9.200772e-05	1.929060e-04	2.199986e-04
397           	2.158636e-04	9.085715e-05	1.913678e-04	2.187157e-04
398           	2.128762e-04	9.051771e-05	1.917634e-04	2.185078e-04
399           	2.126188e-04	8.896983e-05	1.898972e-04	2.168325e-04
400           	2.146104e-04	8.797875e-05	1.898868e-04	2.157422e-04
401           	2.143922e-04	8.713521e-05	1.894083e-04	2.153176e-04
402           	2.130073e-04	8.604148e-05	1.892854e-04	2.134692e-04
403           	2.145387e-04	8.536835e-05	1.890581e-04	2.137195e-04
404           	2.130075e-04	8.430029e-05	1.891891e-04	2.119992e-04
405           	2.149796e-04	8.356542e-05	1.889824e-04	2.119495e-04
406           	2.144524e-04	8.256651e-05	1.885565e-04	2.107168e-04
407           	2.164050e-04	8.169477e-05	1.875179e-04	2.106087e-04
408           	2.144943e-04	8.089386e-05	1.870519e-04	2.091769e-04
409           	2.158518e-04	7.994955e-05	1.856804e-04	2.084851e-04
410           	2.176727e-04	7.922409e-05	1.858019e-04	2.072461e-04
411           	2.181262e-04	7.839529e-05	1.844071e-04	2.074470e-04
412           	2.161887e-04	7.751252e-05	1.833272e-04	2.059436e-04
413           	2.164328e-04	7.683254e-05	1.821796e-04	2.062864e-04
414           	2.145267e-04	7.619646e-05	1.827820e-04	2.058475e-04
415           	2.136092e-04	7.553374e-05	1.820474e-04	2.061413e-04
416           	2.134308e-04	7.506947e-05	1.823484e-04	2.044821e-04
417           	2.117965e-04	7.453358e-05	1.809717e-04	2.040960e-04
418           	2.115651e-04	7.398851e-05	1.806677e-04	2.021809e-04
419           	2.090440e-04	7.342100e-05	1.788272e-04	2.016631e-04
420           	2.089528e-04	7.260745e-05	1.775809e-04	1.991352e-04
421           	2.066335e-04	7.198291e-05	1.757844e-04	1.982075e-04
422           	2.055126e-04	7.106564e-05	1.743330e-04	1.959902e-04
423           	2.051846e-04	7.037560e-05	1.730751e-04	1.949905e-04
424           	2.063715e-04	6.971244e-05	1.725541e-04	1.936579e-04
425           	2.057286e-04	6.924030e-05	1.718338e-04	1.936294e-04
426           	2.068834e-04	6.896707e-05	1.723124e-04	1.932834e-04
427           	2.072620e-04	6.910588e-05	1.727537e-04	1.949885e-04
428           	2.075111e-04	6.899407e-05	1.739140e-04	1.952663e-04
429           	2.076565e-04	6.907248e-05	1.745141e-04	1.960669e-04
430           	2.071510e-04	6.873305e-05	1.750496e-04	1.958604e-04
431           	2.080236e-04	6.850885e-05	1.752773e-04	1.959370e-04
432           	2.062347e-04	6.788499e-05	1.749595e-04	1.949617e-04
433           	2.076147e-04	6.735244e-05	1.737902e-04	1.941844e-04
434           	2.061029e-04	6.686420e-05	1.733410e-04	1.932155e-04
435           	2.069334e-04	6.624431e-05	1.717891e-04	1.926421e-04
436           	2.072341e-04	6.573374e-05	1.713448e-04	1.912653e-04
437           	2.095735e-04	6.539521e-05	1.704974e-04	1.918699e-04
438           	2.079902e-04	6.494571e-05	1.705460e-04	1.911388e-04
439           	2.073916e-04	6.439799e-05	1.692826e-04	1.910008e-04
440           	2.075592e-04	6.395465e-05	1.700520e-04	1.903296e-04
441           	2.068671e-04	6.359074e-05	1.690295e-04	1.907491e-04
442           	2.072789e-04	6.340181e-05	1.701746e-04	1.899420e-04
443           	2.061948e-04	6.309593e-05	1.694349e-04	1.901227e-04
444           	2.055574e-04	6.279760e-05	1.696291e-04	1.892602e-04
445           	2.047139e-04	6.247422e-05	1.683545e-04	1.892861e-04
446           	2.042163e-04	6.196773e-05	1.677264e-04	1.880399e-04