/*--------------------------------*- C++ -*----------------------------------*\
  =========                 |
  \\      /  F ield         | OpenFOAM: The Open Source CFD Toolbox
   \\    /   O peration     | Website:  https://openfoam.org
    \\  /    A nd           | Version:  10
     \\/     M anipulation  |
\*---------------------------------------------------------------------------*/
FoamFile
{
    format      ascii;
    class       volScalarField;
    location    "100";
    object      k;
}
// * * * * * * * * * * * * * * * * * * * * * * * * * * * * * * * * * * * * * //

dimensions      [0 2 -2 0 0 0 0];

internalField   nonuniform List<scalar> 
27507
(
356.058
373.845
389.322
360.476
69.8498
297.517
542.89
766.037
963.591
1138.2
1277.17
1355
1374.03
1311.88
1147.08
1045.43
968.242
911.339
869.988
840.202
818.903
803.88
793.651
787.338
784.517
358.019
380.477
398.495
389.111
357.159
532.612
687.629
853.133
1014.86
1163.06
1281.31
1350.06
1370.39
1307.24
1149.83
1058.37
990.176
940.382
904.248
878.058
859.075
845.442
835.997
830.18
827.513
362.976
394.715
419.541
433.534
178.831
615.482
723.989
835.672
955.048
1072.35
1178.22
1260.27
1309.31
1330.87
1277.35
1144.59
1074.71
1023.98
987.436
960.941
941.546
927.184
916.602
909.152
904.733
902.67
371.94
421.939
476.353
490.488
450.256
60.4049
198.982
685.915
752.433
825.52
910.583
998.903
1081.98
1153.23
1206.32
1240.87
1264.14
1223.16
1129.87
1087.98
1059.02
1038.65
1023.97
1013.03
1004.64
998.253
993.756
991.398
990.241
398.353
481.231
542.327
591.821
601.856
630.001
691.203
734.74
744.945
778.164
831.33
894.149
956.744
1012.93
1059.11
1094.57
1123.56
1149.76
1152.34
1112.07
1098.4
1090.45
1085.57
1082.24
1079.61
1077.27
1075.26
1073.94
1073.71
1073.32
491.26
574.696
622.258
661.375
702.071
727.503
747.582
730.803
734.625
761.341
802.298
848.797
894.527
936.112
972.648
1005.3
1036.41
1066.04
1087.83
1097.89
1106.63
1114.99
1122.41
1128.45
1132.82
1135.74
1137.65
1139.17
1140.78
1140.73
562.13
636.627
670.213
693.362
714.253
725.399
723.653
717.653
725.458
749.871
784.981
824.617
864.438
902.371
938.047
972.007
1005.25
1037.5
1065.29
1088.06
1108.19
1125.41
1140.12
1152.34
1162.56
1170.25
1175.92
1180.19
1183.28
1183.13
601.398
647.489
668.047
679.16
685.455
687.722
688.346
691.625
705.89
730.94
762.992
798.486
834.874
870.739
905.946
940.605
974.909
1008.18
1038.66
1066.46
1091.99
1114.97
1135.11
1152.28
1166.49
1177.59
1186.12
1192.62
1196.7
1196.49
609.656
609.961
622.403
629.002
631.343
634.478
640.655
651.867
670.549
695.6
724.922
756.803
789.832
823.277
856.939
890.749
924.383
957.2
988.419
1018.24
1046.73
1073.27
1097.29
1118.5
1136.55
1151.38
1163.26
1172.44
1177.56
1178.06
552.779
545.003
553.941
563.734
567.397
574.404
585.375
600.487
619.877
642.915
668.616
695.975
724.422
753.74
783.806
814.404
845.197
875.786
905.938
935.824
965.587
994.263
1021.26
1046.18
1068.29
1087.46
1103.57
1116.18
1122.85
1125.07
423.25
473.412
476.179
487.815
493.085
502.501
514.661
529.598
546.942
566.372
587.54
609.991
633.61
658.19
683.767
710.121
737.203
764.848
793.091
821.956
851.377
880.867
909.951
938.246
964.658
988.942
1010.5
1027.68
1036.51
1039.75
222.694
385.879
383.097
400.915
406.921
416.409
427.03
439.362
453.241
468.365
484.809
502.205
520.779
540.284
560.994
582.766
605.853
630.193
656.013
683.31
712.158
742.394
773.827
805.972
837.836
868.544
896.757
919.757
930.872
934.692
63.2403
288.603
291.51
306.502
312.195
318.848
327.41
336.761
347.257
358.478
370.905
384.001
398.353
413.584
430.238
448.124
467.723
488.972
512.245
537.556
565.125
595.036
627.381
661.875
698.076
734.965
770.53
800.779
816.338
822.038
74.1681
180.766
192.083
204.466
209.855
216.273
221.127
228.304
235.798
243.938
253.198
262.914
273.842
285.521
298.594
312.85
328.856
346.604
366.542
388.734
413.234
440.13
470.194
503.352
539.573
578.161
616.959
652.317
674.109
682.26
54.4312
98.3226
101.089
109.569
115.499
119.784
123.589
128.282
133.351
138.809
144.813
151.202
158.18
165.667
173.857
182.734
192.513
203.277
215.291
228.861
244.556
262.615
282.894
305.83
331.647
360.134
389.922
419.1
442.889
453.108
51.7263
58.6507
60.5343
65.0985
68.7859
78.1501
80.6163
84.377
88.3579
92.5328
96.968
101.709
106.698
112.035
117.676
123.689
130.057
136.823
143.966
151.513
159.412
167.629
176.049
184.566
192.948
200.881
207.845
213.319
216.935
218.908
356.9
375.301
390.936
378.282
110.528
306.969
556.826
780.924
966.21
1122.65
1243.37
1313
1333.34
1264.48
1100.9
1011.22
943.167
892.851
856.189
829.766
810.937
797.795
789.038
783.916
781.981
359.225
382.066
399.934
399.11
370.945
534.651
692.606
857.152
1009.4
1142.44
1245.31
1306
1326.93
1257.65
1104.12
1024.83
965.666
922.347
890.86
868.068
851.645
840.019
832.177
827.672
825.968
364.089
396.103
420.19
441.568
168.777
320.854
619.829
724.785
835.716
951.155
1060.51
1155.39
1227
1270.22
1290.31
1230.63
1103.96
1044.75
1001.91
971.143
948.97
932.892
921.162
912.753
907.107
904.181
903.257
372.411
420.804
472.421
491.507
474.873
199.447
436.788
687.189
753.156
826.499
909.608
993.707
1070.55
1134.37
1180.92
1211.45
1232.2
1187.21
1099.3
1065.2
1042.2
1026.54
1015.64
1007.83
1002.1
998.036
995.568
994.827
994.987
393.667
471.464
533.558
560.523
603.46
635.406
690.556
726.498
744.907
780.765
833.595
894.11
953.434
1005.72
1047.93
1079.99
1106.01
1129.2
1131.75
1094.81
1085.43
1081.52
1080.3
1080.25
1080.59
1080.97
1081.43
1082.48
1083.99
1085.12
464.487
557.995
610.485
653.912
692.082
720.294
742.621
732.393
741.303
768.999
809.436
854.57
898.518
938.393
973.352
1004.45
1033.78
1061.55
1082.95
1094.6
1105.84
1116.91
1127.11
1135.97
1143.29
1149.12
1153.77
1157.79
1161.54
1163.39
540.92
624.933
662.801
687.313
708.74
724.615
728.076
726.633
738.619
763.824
798.834
837.993
877.2
914.552
949.656
983.021
1015.66
1047.42
1075.74
1100.05
1122.42
1142.92
1161.19
1176.99
1190.1
1200.64
1209.1
1216.02
1221.59
1223.87
581.234
644.18
669.136
682.542
692.038
698.766
703.992
711.783
729.055
755.596
788.395
824.267
860.871
896.994
932.549
967.685
1002.6
1036.82
1068.98
1099.13
1127.1
1153.01
1176.42
1197.1
1215.31
1230.53
1243.1
1253.46
1261.18
1264.62
594.951
620.033
636.87
646.018
652.63
660.557
671.256
686.622
708.488
735.991
767.315
800.821
835.415
870.443
905.859
941.652
977.485
1012.9
1047.22
1080.48
1112.58
1143.05
1171.17
1196.65
1219.13
1238.4
1254.84
1268.72
1279.39
1285.68
569.41
569.66
584.823
596.436
605.027
617.458
633.693
653.684
677.576
704.658
734.074
765.058
797.157
830.201
864.272
899.37
934.978
970.703
1006.21
1041.42
1076.19
1110.07
1142.42
1172.82
1200.57
1225.52
1247.71
1266.98
1282.23
1292.55
501.041
512.073
526.987
544.513
556.061
572.008
590.991
612.458
636.249
661.961
689.322
718.039
748.006
779.136
811.479
844.938
879.354
914.51
950.28
986.572
1023.22
1059.88
1095.99
1131.48
1165.57
1197.76
1227.65
1254.42
1277.1
1292.02
390.587
464.981
468.171
489.505
502.704
519.849
539.144
560.11
582.764
606.781
632.215
658.913
687.022
716.421
747.251
779.44
813.027
847.933
884.177
921.711
960.474
1000.3
1040.91
1081.97
1122.89
1163.26
1202.31
1238.63
1271.26
1290.98
253.434
406.307
407.332
426.135
439.872
456.02
474.417
493.895
514.963
537.177
560.822
585.721
612.168
639.985
669.413
700.418
733.189
767.743
804.245
842.758
883.41
926.232
971.209
1018.18
1066.86
1116.79
1166.77
1214.5
1258.5
1281.63
92.0337
314.486
327.968
341.885
356.622
369.461
385.879
402.762
421.416
441.126
462.345
484.86
508.839
534.186
561.214
589.881
620.516
653.187
688.191
725.688
765.959
809.207
855.644
905.334
958.27
1014.06
1071.07
1126.7
1177.96
1202.68
69.5642
189.911
208.197
217.925
228.269
238.179
249.382
261.612
275.412
290.177
306.213
323.08
341.232
360.427
381.045
402.988
426.662
452.085
479.617
509.409
541.801
577.006
615.281
656.793
701.654
749.366
798.107
845.897
886.912
905.198
53.5948
86.0552
92.0595
106.217
112.832
120.056
126.32
133.446
140.936
148.784
157.279
166.151
175.523
185.305
195.635
206.439
217.809
229.689
242.131
255.083
268.53
282.367
296.464
310.611
324.485
337.582
349.18
358.603
364.384
367.255
358.033
377.911
393.816
398.03
9.98426
139.535
304.841
565.213
782.835
941.646
1061.12
1144.97
1193.32
1214.21
1155
1017.73
949.357
897.274
858.411
829.877
809.278
794.729
784.864
778.669
775.622
775.518
360.394
384.443
401.938
413.793
117.402
103.48
401.148
532.378
689.12
846.34
976.565
1078.31
1149.93
1191.63
1210.84
1151.36
1025.51
966.116
921.839
889.273
865.563
848.492
836.402
828.22
823.146
820.948
821.054
365.299
397.155
419.534
444.039
398.526
505.133
621.661
717.732
824.157
929.857
1022.09
1095.04
1145.56
1175.54
1191.7
1139.72
1037.69
994.231
963.467
941.801
926.563
915.884
908.498
903.778
901.196
900.917
901.904
372.838
417.573
463.336
486.628
508.25
467.866
476.715
600.852
684.232
748.092
819.202
897.317
972.726
1037.52
1087.65
1121.96
1144.33
1160.49
1121.28
1051.18
1027.41
1012.98
1004.39
999.373
996.522
995.116
995.047
995.937
997.831
1000.33
388.196
455.96
515.46
567.459
591.717
637.785
679.42
710.224
738.506
777.796
829.065
885.397
939.163
985.267
1021.51
1048.61
1070.6
1090.36
1093.51
1066.41
1063.42
1065.2
1069.31
1074.38
1079.46
1084.28
1088.88
1093.48
1098.28
1102.25
432.759
526.739
584.508
629.266
667.631
698.419
715.81
723.934
740.61
770.452
809.917
853.179
895.038
933
966.353
996.015
1023.81
1050.32
1072.24
1086.42
1101.44
1116.86
1131.83
1145.63
1157.91
1168.6
1177.92
1186.2
1193.7
1198.97
502.973
597.154
641.416
668.934
691.416
709.347
719.571
728.079
745.478
773.219
808.541
847.756
886.702
923.864
958.842
991.874
1024.62
1056.9
1086.92
1113.93
1139.94
1164.82
1188.01
1209.07
1227.74
1243.96
1257.96
1270.06
1280.25
1286.93
543.864
626.847
658.887
675.836
689.01
700.225
710.965
725.424
746.722
775.726
810.201
847.501
885.401
922.856
959.793
996.592
1033.54
1070.43
1106.18
1140.26
1173.2
1204.77
1234.42
1261.73
1286.42
1308.25
1327.34
1343.85
1357.33
1366.38
559.196
618.389
641.698
654.148
664.678
676.921
692.398
712.755
738.834
769.923
804.573
841.35
879.236
917.639
956.638
996.442
1036.4
1076.59
1116.46
1156.18
1195.25
1233.29
1269.09
1302.55
1333.41
1361.34
1386.34
1408.37
1426.66
1440.02
549.354
585.017
603.871
616.408
628.934
645.538
666.571
691.89
721.252
753.86
788.879
825.633
863.715
902.878
943.318
985.057
1027.88
1071.43
1115.38
1159.48
1203.24
1246.79
1289.44
1330.43
1368.63
1403.94
1436.42
1465.82
1491.79
1511.67
512.156
542.225
557.402
573.035
589.223
610.035
634.977
663.248
694.344
727.646
762.801
799.523
837.744
877.521
919.153
962.536
1007.46
1053.64
1100.94
1149.16
1198.05
1247.34
1295.87
1343.66
1390.56
1435.44
1477.6
1516.14
1551.77
1576.78
448.951
496.99
509.015
526.774
546.161
569.682
596.687
626.288
658.131
691.75
727.101
764.042
802.631
843.039
885.482
929.898
976.229
1024.37
1074.25
1125.72
1178.51
1232.42
1286.96
1341.67
1395.8
1448.4
1498.72
1545.59
1589.68
1617
352.305
443.436
451.213
470.905
491.972
516.631
544.384
574.27
606.205
639.722
674.972
711.82
750.417
790.979
833.705
878.599
925.635
974.803
1026.1
1079.41
1134.66
1191.69
1250.17
1309.64
1369.34
1428.24
1484.71
1536.84
1584.45
1608.96
187.735
372.06
370.324
394.123
414.921
438.843
465.805
494.487
525.039
557.182
591.021
626.297
663.443
702.526
743.77
786.986
832.259
879.58
928.968
980.343
1033.65
1088.75
1145.36
1202.97
1260.77
1317.52
1371.19
1419.61
1460.93
1479.79
5.73875
247.016
250.179
272.305
290.261
309.421
331.787
355.268
380.628
407.156
435.343
464.927
496.18
529.143
563.601
599.555
637.044
675.981
716.314
757.927
800.682
844.353
888.565
932.737
976.049
1017.21
1054.33
1085.77
1109.79
1119.55
56.6153
122.704
98.2461
119.322
130.2
139.847
151.37
163.049
175.226
187.739
200.353
213.263
226.605
240.329
254.537
269.392
284.556
300.014
315.701
331.496
347.247
362.78
377.861
392.213
405.532
417.442
427.537
435.569
440.916
443.608
359.056
380.112
402.233
407.519
373.552
18.9235
124.454
192.955
312.932
547.142
744.626
875.581
961.66
1013.03
1040.6
1057.62
1015.38
919.167
875.899
841.854
815.884
796.625
782.795
773.335
767.441
764.316
764.352
766.005
361.396
385.87
410.711
418.453
396.291
114.62
77.7357
305.34
415.924
518.083
660.815
801.911
908.246
981.247
1025.01
1048.39
1062.96
1021.25
935.245
897.835
869.544
848.626
833.537
822.971
815.915
811.882
810.154
810.814
813.016
366.034
396.564
426.068
440.528
445.375
384.554
328.845
423.733
531.894
611.498
694.254
789.771
881.93
956.402
1009.28
1041.24
1058.64
1070.09
1033.37
963.814
936.652
918.236
906.086
898.347
893.656
891.197
890.893
891.914
894.336
898.073
372.474
412.571
450.596
488.134
502.772
527.056
549.285
615.143
674.204
731.124
795.689
865.744
931.268
984.616
1023.05
1047.29
1062.61
1074.81
1046.11
997.991
984.481
978.55
977.411
978.605
981.104
984.574
988.798
993.55
998.959
1004.46
383.188
440.019
491.815
538.465
581.251
609.093
654.027
689.34
722.125
761.936
809.922
861.393
909.866
950.915
982.995
1007.07
1026.69
1044.46
1049.39
1034.45
1037.03
1044.4
1054.34
1064.89
1075.31
1085.18
1094.56
1103.49
1112.14
1119.48
407.453
490.622
549.597
594.413
630.779
663.059
685.798
703.723
726.568
758.07
796.651
838.136
878.595
915.631
948.54
978.015
1005.69
1032.53
1056.58
1074.21
1093.2
1113.36
1133.52
1152.84
1170.8
1187.17
1201.95
1215.24
1227.09
1236.22
470.808
558.129
606.362
638.349
662.545
682.915
699.255
715.617
737.553
767.272
803.132
842.192
881.526
919.455
955.519
990.162
1024.38
1058.52
1091.45
1122.19
1152.63
1182.72
1211.79
1239.21
1264.52
1287.48
1307.99
1326
1341.27
1352.39
510.909
596.341
634.287
655.224
671.23
685.925
701.275
720.299
745.763
777.603
814.138
853.313
893.297
933.053
972.506
1011.99
1051.94
1092.34
1132.46
1171.86
1210.91
1249.38
1286.6
1321.93
1354.85
1384.94
1411.95
1435.56
1455.11
1469.2
519.496
600.136
630.17
645.592
658.198
672.824
691.623
715.761
745.791
780.328
818.516
859.102
901.166
943.854
987.32
1031.74
1076.93
1122.99
1169.55
1216.39
1263.31
1309.93
1355.43
1399.16
1440.47
1478.78
1513.64
1544.37
1570.16
1589.1
512.54
577.669
602.035
616.184
630.133
648.41
672.154
701.196
734.978
772.549
812.967
855.621
900.154
945.658
992.64
1041.33
1091.97
1144.05
1197.37
1251.47
1305.9
1360.62
1414.87
1467.84
1518.71
1566.71
1611.03
1650.76
1686.19
1712.9
485.961
540.148
559.657
574.854
592.226
614.923
643.157
676.083
712.895
752.86
795.399
840.121
886.794
935.35
985.9
1038.75
1093.97
1150.93
1209.84
1270.64
1332.88
1396.09
1459.49
1522.34
1583.62
1642.27
1697.03
1746.79
1793.25
1825.85
439.89
493.329
507.247
524.356
545.589
572.175
603.811
639.453
678.439
720.308
764.659
811.274
860.082
911.101
964.578
1020.71
1079.5
1140.75
1204.59
1270.86
1338.68
1408.07
1478.39
1548.85
1618.39
1685.63
1748.8
1806.78
1861.97
1896.76
369.151
435.824
446.513
466.399
490.898
520.335
554.199
591.49
631.806
674.918
720.486
768.335
818.443
870.943
926.024
983.771
1044.31
1107.61
1173.76
1242.39
1313.16
1385.77
1459.64
1533.94
1607.44
1678.43
1744.68
1805.01
1860.98
1890.78
241.554
364.242
368.32
392.173
417.757
448.184
482.345
519.53
559.78
602.506
647.582
694.873
744.266
795.977
849.953
906.364
965.256
1026.58
1090.4
1156.19
1223.63
1292.27
1361.52
1430.54
1497.96
1562.01
1620.67
1673.02
1718.96
1740.05
100.415
233.679
251.571
279.367
301.054
328.328
358.332
391.264
426.803
464.519
504.189
545.808
589.333
634.524
681.585
730.399
780.925
832.937
886.263
940.386
994.731
1048.75
1101.83
1153.17
1201.56
1245.79
1284.74
1317.62
1343.04
1353.41
66.7366
111.101
99.0135
118.113
129.512
142.174
155.481
170.054
185.606
202.337
219.645
237.804
256.461
275.613
294.944
313.993
333.437
353.056
372.868
392.946
412.736
432.118
450.817
468.449
484.69
499.251
511.832
522.148
530.083
533.437
359.61
380.858
402.24
412.265
409.099
371.551
300.974
282.618
276.124
294.709
357.452
497.97
643.61
747.715
815.169
854.646
874.556
884.922
880.152
826.782
804.471
786.091
771.75
761.19
753.903
749.573
747.66
748.216
750.669
755.037
361.783
385.645
408.575
419.758
421.89
394.474
347.062
359.48
390.975
440.907
506.913
603.031
705.275
786.182
841.488
874.462
891.542
900.7
895.546
850.198
831.303
816.794
806.226
799.114
794.769
792.598
792.87
794.425
797.986
802.942
365.904
394.318
419.815
442.007
448.445
451.92
457.326
487.97
534.314
585.721
645.697
715.804
785.201
842.325
883.136
908.353
922.76
931.697
927.014
891.979
879.361
871.772
867.935
867.204
868.165
870.346
874.037
878.689
884.426
891.019
371.213
406.369
437.618
469.049
498.784
515.334
552.588
594.157
635.426
680.167
731.313
786.669
839.274
883.233
916.133
938.455
953.881
965.696
965.129
943.28
940.127
941.996
946.903
953.856
961.648
969.845
978.333
987.015
995.894
1004.42
378.553
425.001
467.57
507.913
545.179
575.755
615.857
649.957
682.362
719.277
762.145
808.116
852.411
891.244
923.031
948.116
968.86
987.079
998.635
998.001
1006.57
1019.82
1034.91
1050.58
1066.06
1080.9
1094.95
1108.21
1120.64
1131.3
391.325
457.843
511.372
554.787
589.794
622.515
648.115
671.116
697.053
728.816
765.91
805.715
845.379
882.631
916.624
947.834
977.314
1005.92
1033.12
1054.91
1078.24
1103.11
1128.27
1152.86
1176.37
1198.35
1218.53
1236.74
1252.8
1265.51
421.746
507.713
560.981
597.732
624.545
647.457
667.604
688.386
713.517
744.658
780.939
820.239
860.363
899.771
937.847
974.823
1011.42
1048.12
1084.44
1119.35
1154.47
1189.82
1224.74
1258.49
1290.45
1320.11
1347.03
1370.7
1390.62
1405.38
478.916
554.313
595.65
621.393
639.987
657.347
676.095
698.558
726.573
760.154
798.086
838.924
881.136
923.773
966.42
1009.29
1052.8
1097.16
1142.02
1186.91
1232.11
1277.42
1322.16
1365.53
1406.76
1445.11
1479.86
1510.07
1534.79
1552.03
488.016
567.632
602.756
621.556
636.104
651.946
672.531
698.391
730.26
767.488
808.736
852.803
898.627
945.355
993.018
1041.94
1092.39
1144.39
1197.65
1251.87
1306.9
1362.39
1417.57
1471.53
1523.27
1571.8
1616.04
1654.58
1686.41
1708.18
477.402
553.665
583.458
599.22
613.357
631.484
655.804
686.568
723.239
764.744
809.31
856.589
906.025
957.449
1010.76
1066.24
1123.93
1183.6
1245.32
1308.77
1373.66
1439.66
1505.97
1571.51
1635.07
1695.36
1750.78
1799.72
1843.02
1874.91
456.76
520.553
544.749
559.845
576.294
598.534
627.674
663.129
703.844
748.697
796.711
847.596
900.927
956.923
1015.18
1076.35
1140.62
1207.81
1277.79
1350.31
1425.08
1501.57
1578.95
1656.17
1731.91
1804.5
1871.74
1932.25
1989.08
2029.77
423.004
472.592
490.666
506.525
526.66
553.515
587.217
626.687
670.956
718.564
769.416
823.245
879.978
939.765
1002.69
1069.02
1138.92
1211.71
1287.78
1367.01
1449
1533.31
1619.14
1705.46
1790.81
1873.27
1950.12
2020.35
2088.36
2132.7
371.564
410.009
422.224
440.366
464.663
495.836
533.264
575.677
622.422
671.968
724.874
780.806
839.967
902.366
968.181
1037.53
1110.37
1186.55
1266.09
1348.86
1434.44
1522.26
1611.56
1701.42
1790.09
1875.25
1954.18
2026.57
2095.88
2134.56
284.02
331.824
340.172
362.593
390.844
425.308
465.054
508.601
555.938
605.606
658.393
714.173
773.329
835.556
901.001
969.621
1041.22
1115.62
1192.51
1271.72
1352.68
1434.65
1516.87
1598.53
1677.65
1752.11
1820.05
1881.9
1938.99
1966.17
159.092
224.941
237.065
260.077
287.316
319.131
354.936
393.188
434.843
479.293
526.849
577.2
630.362
686.093
744.304
804.647
866.92
930.675
995.159
1059.88
1124.06
1186.67
1246.6
1303.64
1356.16
1403.28
1444.84
1481.26
1510.3
1523.16
25.3604
89.7784
95.777
113.437
126.202
139.816
153.463
168.309
185.572
203.693
222.729
243.148
264.739
287.528
311.177
335.715
360.727
385.928
410.921
435.026
458.868
482.159
505.181
527.145
547.173
565.176
580.984
594.126
603.734
607.832
359.508
380.066
400.525
415.264
418.9
410.909
391.689
381.231
373.773
380.514
406.329
465.328
544.684
616.389
672.004
711.292
734.685
747.36
750.802
747.916
741.201
734.958
730.008
726.771
724.999
725.443
727.377
731.09
736.184
742.664
361.408
383.936
405.221
421.51
429.193
424.315
414.677
425.342
435.06
458.548
495.244
547.359
607.753
663.395
707.981
740.478
761.142
773.074
777.161
775.435
771.143
767.547
765.397
764.858
765.779
768.242
772.087
777.084
783.287
790.512
364.888
390.775
413.394
432.78
448.362
460.558
472.667
489.499
514.372
546.558
585.975
631.722
679.084
722.229
757.581
784.488
803.68
816.535
823.081
824.373
824.787
826.358
829.501
834.228
839.982
846.584
853.98
861.999
870.673
879.855
369.133
399.692
425.641
451.55
476.048
500.769
525.273
551.194
580.271
613.674
651.714
692.899
733.922
771.399
803.296
829.179
850.008
866.903
879.19
886.067
893.452
902.65
913.365
925.129
937.365
949.762
962.134
974.373
986.468
997.858
374.405
411.965
445.674
479.474
510.878
542.279
570.495
597.058
625.135
657.009
693.027
731.625
770.24
806.539
839.21
868.049
893.745
917.107
937.629
953.661
970.595
989.362
1009.16
1029.29
1049.17
1068.46
1086.78
1103.91
1119.73
1133.43
381.387
431.782
475.83
515.188
548.181
577.633
603.057
627.278
653.736
684.5
719.605
757.542
796.269
834.005
869.776
903.467
935.609
966.826
997.138
1025.25
1053.77
1083.18
1112.93
1142.3
1170.69
1197.61
1222.62
1245.21
1264.98
1280.78
393.891
462.114
513.213
551.932
580.885
605.146
627.189
650.026
676.486
707.944
743.97
783.168
823.861
864.691
904.928
944.517
983.854
1023.38
1063.07
1102.43
1142.18
1182.41
1222.59
1262
1299.88
1335.47
1368.01
1396.58
1420.43
1437.96
420.982
500.161
546.979
578.007
599.916
619.291
639.643
663.534
692.572
726.692
765.362
807.414
851.496
896.591
942.217
988.384
1035.38
1083.49
1132.65
1182.61
1233.41
1284.87
1336.31
1386.84
1435.42
1480.97
1522.3
1558.01
1586.83
1606.31
459.606
526.183
562.428
584.691
601.248
618.233
639.081
665.538
698.273
736.673
779.711
826.126
874.596
924.74
976.367
1029.63
1084.68
1141.74
1200.71
1261.39
1323.64
1387.05
1450.83
1513.85
1574.75
1632.04
1684.02
1728.85
1765.55
1790.76
453.106
521.515
552.646
569.344
583.418
600.783
624.395
655.23
693.221
736.119
783.399
834.345
887.993
944.105
1002.46
1063.15
1126.36
1192.44
1261.38
1333.03
1407.13
1483.12
1560.12
1636.82
1711.56
1782.41
1847.19
1904.15
1954.73
1994.16
433.393
494.136
519.575
533.794
548.312
568.568
596.612
632.371
674.791
722.426
774.392
830.304
888.671
950.046
1014.29
1082.06
1153.43
1228.55
1307.44
1389.81
1475.39
1563.62
1653.57
1743.79
1832.53
1917.68
1996.62
2067.97
2136.17
2188.42
407.741
450.109
467.548
480.559
497.562
522.273
555.461
596.138
642.926
694.521
750.247
809.685
872.633
938.615
1008.28
1082.01
1159.65
1241.68
1328.05
1418.6
1513.02
1610.73
1710.73
1811.51
1911.52
2008.45
2099.04
2182.64
2265.92
2323.04
370.836
388.775
397.561
411.09
432.071
461.911
500.081
544.872
594.963
649.313
707.589
769.547
835.336
904.216
977.12
1054.31
1136
1222.17
1312.75
1407.54
1506.08
1607.64
1711.09
1815.28
1918.72
2018.56
2111.65
2198.45
2284.8
2335.65
312.482
305.185
309.103
326.073
351.903
386.347
428.617
476.12
527.877
583.242
642.206
704.468
770.538
839.457
912.254
989.038
1069.91
1154.59
1242.81
1334.17
1428.01
1523.33
1618.77
1713.18
1805.13
1892.18
1972.45
2047.43
2119.72
2155.05
228.242
191.805
204.451
226.523
255.622
290.641
330.3
373.69
420.434
470.14
523.262
578.505
637.193
698.794
763.501
831.348
901.545
973.771
1047.22
1121.04
1194.79
1267.26
1337.16
1403.23
1464.14
1518.61
1566.99
1610.43
1646.88
1661.67
129.845
59.1759
89.7553
99.3913
114.572
130.122
146.875
164.844
182.964
202.363
221.502
241.581
264.793
288.63
313.769
340.164
367.739
396.913
426.574
457.498
488.276
518.342
546.675
572.232
595.712
616.943
636.298
652.977
665.145
671.253
358.755
377.823
397.15
412.591
420.413
421.707
418.001
409.439
404.085
406.275
417.051
445.52
491.549
541.445
586.561
623.799
650.303
667.892
678.582
684.307
687.541
689.697
691.645
694.044
697.11
701.189
706.245
712.417
719.614
727.726
360.333
380.897
400.664
416.726
426.774
432.02
433.308
433.204
437.412
449.373
470.417
501.87
542.15
584.39
622.786
654.989
678.913
695.605
706.55
713.439
718.291
722.412
726.539
731.178
736.44
742.506
749.368
757.024
765.478
774.545
363.17
386.248
406.662
424.157
438.615
450.173
460.065
471.15
486.785
508.245
535.7
568.702
605.171
641.438
674.349
702.433
724.879
742.211
755.39
765.247
773.71
781.947
790.523
799.648
809.295
819.392
829.893
840.72
851.849
863.233
366.607
392.953
414.912
436.426
456.877
476.194
494.585
513.843
535.986
562.077
592.287
625.798
660.757
694.837
726.207
753.939
777.881
798.558
816.381
831.462
845.89
860.645
875.918
891.594
907.455
923.3
938.944
954.233
969.037
982.975
370.549
401.14
427.536
455.013
481.337
506.366
529.545
552.33
576.866
604.637
635.986
670.092
705.367
740.107
773.071
803.667
831.942
858.321
883.023
905.811
928.532
951.818
975.555
999.403
1022.96
1045.89
1067.84
1088.4
1107.24
1123.63
374.677
412.534
446.57
479.897
509.605
536.063
559.91
583.231
608.48
637.242
669.805
705.347
742.485
779.84
816.463
851.922
886.333
920.045
953.271
985.81
1018.58
1051.89
1085.47
1118.8
1151.31
1182.4
1211.43
1237.7
1260.62
1279.09
380.347
429.521
471.465
507.656
536.752
561.292
583.75
606.826
632.958
663.412
698.173
736.378
776.762
818.173
859.846
901.48
943.195
985.275
1027.87
1070.87
1114.56
1158.92
1203.48
1247.51
1290.17
1330.55
1367.61
1400.22
1427.38
1447.25
389.537
451.808
497.561
531.039
555.489
576.268
597.166
620.997
649.462
682.889
721.087
763.213
808.026
854.599
902.359
951.11
1000.98
1052.22
1104.91
1158.96
1214.33
1270.75
1327.54
1383.71
1438.07
1489.2
1535.62
1575.68
1608.02
1629.81
408.14
476.154
515.455
541.044
559.623
577.229
597.7
623.404
655.426
693.467
736.725
783.847
833.919
886.398
940.963
997.481
1056.13
1117.15
1180.59
1246.36
1314.24
1383.84
1454.24
1524.24
1592.13
1655.81
1713.67
1763.88
1805.07
1834.02
431.803
486.065
514.912
532.131
545.879
561.972
583.887
613.261
650.5
693.499
741.832
794.621
850.844
910.051
971.825
1036.34
1103.98
1175.01
1249.54
1327.46
1408.33
1491.76
1576.82
1661.99
1745.18
1823.78
1896.4
1961.33
2018.89
2064.77
420.035
468.324
489.955
501.779
513.487
530.691
556.117
590.299
632.434
680.993
734.926
793.328
854.919
920.054
988.819
1061.38
1138.02
1218.96
1304.26
1393.62
1486.96
1583.76
1683.08
1783.34
1882.42
1977.85
2067.56
2149.86
2229.88
2293.63
400.972
431.054
443.11
451.155
463.359
484.017
514.508
554.152
601.431
654.79
713.167
775.838
842.425
912.979
987.709
1066.55
1150.08
1238.64
1331.99
1430.32
1533.41
1640.75
1751.28
1863.52
1975.67
2085.41
2188.89
2286.42
2386.4
2458.62
370.642
375.626
375.739
381.771
396.873
422.712
458.833
503.444
554.759
611.443
672.769
738.341
807.993
881.757
959.966
1042.92
1131.02
1223.67
1321.41
1424.16
1531.49
1642.76
1757.04
1872.78
1988.58
2102.11
2210.12
2313.24
2419.27
2484.18
328.452
298.903
287.033
294.608
315.035
346.609
387.297
434.751
487.563
544.957
606.836
673.057
743.145
817.182
895.532
978.294
1065.64
1156.66
1251.88
1351.06
1453.46
1558.26
1664.78
1771.4
1876.61
1977.66
2072.32
2162.95
2252.36
2297.1
265.172
190.525
174.029
189.711
217.056
252.619
294.203
339.997
389.458
442.281
498.425
557.856
620.671
686.793
756.062
828.695
903.141
979.917
1057.96
1137.85
1218.62
1299.48
1379.13
1455.98
1528.25
1594.05
1652.72
1705.78
1750.92
1768.84
159.832
62.381
67.7843
83.4896
97.8531
114.883
132.79
151.741
171.837
192.783
214.858
237.72
261.53
286.34
312.144
339.602
366.411
397.509
429.54
462.479
496.022
530.048
563.929
596.698
627.288
654.458
678.227
699.352
715.68
723.932
357.463
374.333
392.289
407.948
418.293
423.004
423.726
421.817
419.875
421.155
426.784
441.046
466.229
497.542
530.104
560.219
585.376
605.035
619.935
631.277
640.26
647.765
654.513
660.999
667.573
674.548
682.034
690.188
699.109
708.413
358.722
376.769
394.96
410.79
422.165
429.186
433.073
435.244
438.69
445.934
458.25
477.096
502.695
532.243
562.206
589.94
613.528
632.562
647.673
659.847
670.09
679.171
687.711
696.156
704.701
713.6
722.888
732.624
742.93
753.38
360.977
380.969
399.446
415.662
429.203
440.324
449.518
458.399
469.318
483.907
502.832
526.176
553.168
581.873
610.151
636.402
659.533
679.342
696.295
710.964
724.278
736.922
749.356
761.844
774.514
787.355
800.334
813.41
826.556
839.664
363.802
386.105
405.074
423.134
440.619
456.793
471.825
486.972
503.969
524.02
547.544
574.23
603.101
632.708
661.661
688.966
714.082
737.002
758.036
777.486
796.191
814.718
833.307
851.969
870.646
889.186
907.438
925.203
942.249
958.374
366.647
391.761
412.777
434.774
456.59
477.306
496.77
516.054
536.794
560.236
586.85
616.286
647.616
679.666
711.415
742.171
771.657
799.943
827.245
853.715
880.02
906.523
933.222
959.913
986.313
1012.11
1036.89
1060.18
1081.53
1100.42
369.535
398.424
423.979
450.685
476.097
499.379
520.893
542.125
564.96
590.771
620.043
652.422
687.029
722.842
759.014
795.008
830.664
866.078
901.424
936.777
972.5
1008.71
1045.19
1081.48
1117.07
1151.37
1183.62
1212.96
1238.61
1259.61
372.401
407.503
439.018
469.456
496.096
519.372
540.857
562.734
587.147
615.384
647.765
683.836
722.711
763.454
805.323
847.886
891.046
934.91
979.611
1025.18
1071.71
1119.08
1166.81
1214.21
1260.41
1304.43
1345.03
1380.92
1410.88
1432.97
375.766
419.228
456.054
486.943
511.392
532.164
552.462
575.013
601.687
633.149
669.564
710.316
754.446
801.12
849.687
899.824
951.504
1004.86
1059.98
1116.87
1175.42
1235.31
1295.84
1355.98
1414.4
1469.53
1519.68
1563.31
1598.58
1622.45
381.172
432.958
470.371
496.394
515.725
533.111
552.392
576.246
606.185
642.367
684.26
730.597
780.726
834.051
889.994
948.372
1009.26
1072.85
1139.22
1208.33
1279.97
1353.68
1428.57
1503.25
1575.75
1643.75
1705.93
1760.43
1804.99
1836.48
393.978
446.191
474.31
491.732
504.69
518.994
538.432
565.116
600.11
641.621
689.293
742.002
798.964
859.489
923.016
989.817
1060.13
1134.2
1212.17
1293.93
1379.23
1467.55
1557.92
1648.62
1737.08
1820.9
1899.55
1970.14
2032.16
2081.87
412.34
443.094
458.582
467.016
475.299
488.665
510.327
541.406
581.498
629.157
683.397
741.983
804.87
871.985
943.014
1018.21
1097.82
1182.08
1271.1
1364.88
1463.19
1565.56
1671
1777.73
1883.19
1985.56
2083.27
2173.52
2261.62
2334.09
416.422
417.101
419.641
421.014
427.131
442.272
468.371
505.111
550.936
604.023
662.971
726.719
794.986
867.948
944.817
1026.4
1113.09
1205.16
1302.78
1406.01
1514.71
1628.18
1745.57
1864.9
1984.72
2102.69
2215.98
2323.88
2436.98
2522.48
375.762
368.552
358.083
354.376
361.366
380.975
413.042
455.547
506.183
563.109
625.22
691.961
763.21
839.056
919.621
1005.31
1096.34
1192.88
1295.11
1402.98
1516.14
1633.75
1755.01
1878.05
2001.99
2124.58
2242.86
2358.75
2482.23
2561.94
344.002
299.97
274.134
268.06
279.551
305.505