/*--------------------------------*- C++ -*----------------------------------*\
  =========                 |
  \\      /  F ield         | OpenFOAM: The Open Source CFD Toolbox
   \\    /   O peration     | Website:  https://openfoam.org
    \\  /    A nd           | Version:  10
     \\/     M anipulation  |
\*---------------------------------------------------------------------------*/
FoamFile
{
    format      ascii;
    class       volScalarField;
    location    "100";
    object      nut;
}
// * * * * * * * * * * * * * * * * * * * * * * * * * * * * * * * * * * * * * //

dimensions      [0 2 -1 0 0 0 0];

internalField   nonuniform List<scalar> 
27507
(
577.804
319.877
140.209
42.1825
4.31138
28.8784
73.7986
122.832
159.274
182.868
193.149
190.365
180.77
170.644
166.084
165.819
167.467
170.552
174.669
179.466
184.702
190.213
195.977
201.661
209.212
547.768
317.342
160.031
54.7594
26.2481
69.4975
108.143
143.882
171.048
188.301
194.019
188.637
178.666
170.193
169.752
171.6
174.714
178.692
183.224
188.067
193.138
198.352
203.747
209.084
216.074
466.905
291.687
195.853
98.9966
1.38172
79.8726
123.231
151.467
173.274
188.838
197.13
196.021
186.94
176.73
172.287
178.093
182.665
187.453
192.284
196.98
201.707
206.408
211.103
215.893
220.662
226.587
295.274
207.556
183.138
139.126
52.2316
0.578182
1.20921
84.8162
135.171
161.301
179.155
192.285
200.751
203.603
198.861
188.55
179.424
179.653
189.854
195.735
200.903
205.644
210.258
214.615
218.776
222.872
227.019
231.149
235.799
107.481
121.995
145.75
143.084
111.111
79.8723
78.8622
120.931
146.822
163.8
176.758
187.707
196.453
202.454
204.815
202.259
195.846
190.743
191.614
199.99
204.725
209.508
213.933
217.967
221.775
225.453
229.089
232.751
236.327
239.825
54.0893
102.456
122.664
130.628
126.761
131.692
137.32
147.634
154.244
161.664
169.451
176.94
183.574
188.871
192.503
194.291
194.62
195.539
198.317
201.517
205.72
209.667
213.446
217.09
220.613
224.082
227.522
230.921
234.102
236.762
82.8997
104.828
113.996
118.602
119.481
124.943
136.867
140.823
143.599
148.526
154.41
160.453
166.167
171.364
175.961
179.648
182.708
185.774
189.106
192.518
196.154
199.707
203.238
206.803
210.464
214.082
217.608
220.934
223.812
225.842
70.4602
109.702
113.871
114.828
115.363
119.488
125.86
126.744
129.266
133.141
137.796
142.726
147.675
152.291
156.539
160.395
164.093
167.735
171.314
174.953
178.633
182.343
186.018
189.766
193.502
197.166
200.659
203.818
206.328
207.849
59.851
103.134
111.047
110.341
109.345
108.957
109.393
110.643
112.986
116.205
119.982
123.884
127.685
131.374
134.94
138.449
141.936
145.403
148.834
152.401
155.967
159.752
163.393
167.187
170.873
174.502
177.87
180.804
182.895
184
47.7107
88.9216
94.3323
93.3933
92.4791
92.3332
93.0742
94.5163
96.4275
98.7709
101.383
104.059
106.735
109.436
112.17
114.938
117.748
120.605
123.549
126.699
129.958
133.566
136.856
140.515
143.938
147.389
150.512
153.189
154.863
155.649
32.1545
73.6586
76.0907
75.3786
74.6076
74.8865
75.5778
76.6872
78.071
79.6557
81.3869
83.1767
85.0345
86.9246
88.8835
90.8886
92.9746
95.1442
97.4488
99.9214
102.613
105.64
108.478
111.825
114.761
117.956
120.785
123.268
124.558
125.122
13.1694
56.1556
56.5249
56.987
56.5072
56.8646
57.3539
58.0566
58.9449
59.9164
61.0043
62.1162
63.3117
64.5315
65.8387
67.2003
68.6748
70.2504
71.9813
73.8721
75.9632
78.2601
80.8007
83.6931
86.4639
89.5178
91.9383
94.3005
95.2466
95.7116
3.17745
38.5996
38.992
39.4647
39.3047
39.4
39.7419
40.1355
40.6702
41.218
41.8832
42.5432
43.3039
44.0814
44.9634
45.9006
46.9642
48.1281
49.4465
50.9092
52.5531
54.3829
56.4282
58.6733
61.1245
63.684
66.2102
68.5357
69.4434
69.9489
3.28376
21.5568
22.3355
23.3935
23.4803
23.707
23.7738
24.036
24.35
24.6647
25.0888
25.4944
25.9934
26.5031
27.1048
27.7534
28.5115
29.3583
30.3387
31.4413
32.6755
34.0375
35.5945
37.3347
39.264
41.3301
43.3953
45.3818
46.5152
47.0188
2.31716
10.1189
10.3212
10.6493
11.0843
11.155
11.2983
11.4381
11.6422
11.8311
12.0666
12.2981
12.5622
12.8345
13.1382
13.4612
13.8232
14.2213
14.6755
15.1975
15.8228
16.5552
17.3829
18.3309
19.4119
20.6093
21.8469
23.0492
24.1604
24.5876
4.92507
4.18465
5.80822
5.26543
5.62956
6.17145
6.1591
6.32677
6.4783
6.63406
6.79809
6.9677
7.14283
7.32534
7.51388
7.70977
7.91232
8.12183
8.33769
8.5596
8.78608
9.01542
9.24444
9.47008
9.68679
9.88719
10.0597
9.89459
9.28287
9.05254
578.291
301.63
168.506
55.4916
7.14945
31.1913
78.6031
128.934
163.791
184.891
192.168
186.745
176.31
166.615
163.272
164.041
166.371
169.886
174.27
179.237
184.596
190.211
196.093
201.837
209.678
512.696
300.569
183.797
69.4945
31.6697
72.622
111.4
147.885
174.075
189.447
192.633
185.017
174.374
166.428
167.381
170.196
173.929
178.305
183.102
188.131
193.351
198.696
204.222
209.651
216.849
393.355
285.968
213.311
117.272
2.67106
8.87078
85.8973
125.455
153.4
175.245
190.227
197.309
194.475
183.941
173.287
169.364
176.649
181.956
187.221
192.384
197.339
202.279
207.165
212.034
216.991
221.89
228.004
274.617
228.358
199.088
148.886
67.9883
4.39462
11.4361
94.5759
138.074
162.878
180.581
193.596
201.645
203.748
198.001
186.851
177.428
178.249
189.776
196.077
201.582
206.644
211.514
216.088
220.462
224.762
229.101
233.363
238.176
129.758
137.411
157.68
153.346
119.705
89.0607
89.0062
126.079
149.473
165.863
178.794
189.72
198.377
204.162
206.21
203.282
196.528
191.153
192.024
201.524
206.538
211.597
216.292
220.589
224.637
228.535
232.367
236.233
239.91
243.516
60.6738
103.816
127.611
135.852
137.059
134.92
139.912
151
158.215
165.929
173.897
181.452
188.054
193.304
196.826
198.444
198.598
199.299
201.931
205.255
209.622
213.774
217.762
221.604
225.343
229.011
232.623
236.162
239.444
242.17
81.3124
103.696
116.18
125.004
128.014
131.872
142.316
145.819
149.489
154.694
160.759
166.925
172.698
177.893
182.406
186.041
189.044
192.057
195.413
198.971
202.817
206.705
210.583
214.439
218.233
221.939
225.529
228.904
231.828
233.877
74.2419
108.644
115.483
119.399
121.731
126.225
132.246
133.946
137.115
141.4
146.334
151.463
156.549
161.275
165.671
169.675
173.497
177.284
181.087
184.966
188.849
192.79
196.707
200.642
204.601
208.445
212.074
215.33
217.92
219.476
63.3482
106.858
113.178
114.517
115.888
116.886
118.057
120.047
123.039
126.787
130.983
135.267
139.487
143.56
147.517
151.38
155.205
159.03
162.875
166.8
170.751
174.831
178.833
182.846
186.731
190.444
193.852
196.796
199.009
200.242
52.8466
94.374
101.697
101.36
101.41
102.081
103.637
105.859
108.594
111.715
115.053
118.44
121.819
125.205
128.632
132.128
135.669
139.257
142.916
146.675
150.514
154.452
158.311
162.277
166.001
169.569
172.748
175.421
177.261
178.208
41.0907
80.567
85.9074
85.7304
86.3422
87.4475
89.1824
91.292
93.7007
96.2916
99.0069
101.777
104.602
107.465
110.395
113.391
116.469
119.627
122.887
126.258
129.749
133.342
136.933
140.622
144.148
147.54
150.531
152.981
154.608
155.461
27.7851
68.066
70.276
70.5216
71.472
72.7157
74.3768
76.2384
78.3148
80.4824
82.7591
85.0818
87.4879
89.9426
92.4831
95.0945
97.8039
100.605
103.519
106.543
109.682
112.921
116.241
119.605
122.871
125.994
128.743
131.029
132.633
133.562
14.5646
54.0766
55.1488
55.2583
56.308
57.3835
58.8417
60.3743
62.1071
63.8875
65.7884
67.73
69.7737
71.8676
74.0583
76.3238
78.7011
81.1799
83.7877
86.5183
89.3867
92.3734
95.4592
98.5996
101.734
104.762
107.521
109.812
111.532
112.442
4.47787
36.8825
38.5785
38.811
39.691
40.372
41.4986
42.5928
43.8914
45.2108
46.6549
48.1396
49.7126
51.3324
53.0472
54.833
56.7345
58.7446
60.9001
63.1996
65.6587
68.2728
71.0407
73.9262
76.8883
79.8329
82.5647
84.887
86.6881
87.5556
3.09789
18.2615
19.5215
19.8447
20.4174
20.7872
21.3436
21.9072
22.6068
23.3253
24.1199
24.9235
25.7849
26.6699
27.613
28.5977
29.6571
30.7866
32.0147
33.3511
34.8261
36.4446
38.2347
40.171
42.2568
44.439
46.559
48.4521
49.8381
50.4213
5.06956
5.83058
6.49384
6.97791
7.26264
7.47076
7.67001
7.89953
8.126
8.35603
8.60203
8.85355
9.11169
9.37445
9.64478
9.92091
10.2038
10.4919
10.7861
11.0843
11.3859
11.6882
11.9884
12.2818
12.5627
12.8218
13.0469
13.2281
13.3321
13.3922
428.02
275.876
206.677
99.7171
0.137772
9.52615
31.9325
83.839
137.054
170.39
187.917
190.489
180.474
168.333
160.204
159.842
162.077
165.392
169.511
174.249
179.43
184.94
190.693
196.75
202.573
210.918
368.041
277.652
217.687
114.1
1.26584
2.66316
41.5133
76.3577
115.6
153.729
178.887
191.534
190.842
179.41
167.293
160.985
164.974
168.951
173.468
178.338
183.459
188.716
194.126
199.658
205.396
210.964
218.587
296.389
282.651
251.262
157.346
44.3969
46.231
95.5441
129.002
156.34
178.542
192.991
198.49
193.324
180.422
168.725
166.163
176.091
182.035
187.793
193.313
198.569
203.779
208.909
214.033
219.235
224.346
230.725
239.122
258.362
211.007
167.046
102.926
44.5219
29.6267
61.8718
109.618
143.005
165.63
183.109
196.21
203.96
205.325
198.596
186.315
176.232
177.972
191.33
197.858
203.661
209.087
214.26
219.131
223.804
228.432
233.04
237.473
242.52
154.545
166.888
178.476
158.962
134.004
114.702
117.058
134.718
154.042
169.456
182.25
193.223
201.894
207.602
209.541
206.557
199.643
193.96
194.594
205.266
210.618
215.949
220.943
225.598
229.986
234.206
238.332
242.405
246.306
250.094
73.3969
111.547
138.265
150.726
147.236
145.655
149.656
156.201
164.035
172.202
180.373
188.136
194.852
200.223
203.88
205.55
205.734
206.286
208.721
212.123
216.641
221.117
225.474
229.69
233.775
237.752
241.629
245.377
248.839
251.679
79.8919
105.952
122.579
136.043
142.902
147.069
149.793
153.374
158.1
163.953
170.336
176.828
182.82
188.168
192.734
196.401
199.486
202.544
206.004
209.784
213.919
218.138
222.365
226.544
230.64
234.617
238.429
241.979
245.052
247.203
82.6903
110.432
121.763
129.863
135.028
139.643
141.603
144.527
148.5
153.405
158.84
164.409
169.815
174.871
179.583
183.935
188.077
192.189
196.366
200.591
204.902
209.255
213.587
217.876
222.076
226.105
229.868
233.22
235.913
237.573
71.4106
112.827
121.049
125.07
127.033
128.168
130.156
133.094
136.949
141.449
146.3
151.226
156.113
160.83
165.423
169.937
174.325
178.705
183.122
187.658
192.225
196.821
201.272
205.63
209.833
213.794
217.389
220.466
222.791
224.135
61.6421
102.969
111.86
112.764
113.46
114.899
117.274
120.425
124.208
128.389
132.78
137.222
141.658
146.06
150.469
154.902
159.358
163.825
168.34
172.9
177.444
182.028
186.57
191.023
195.17
198.99
202.37
205.19
207.262
208.527
52.1413
91.5518
97.9313
97.9764
99.2191
101.079
103.76
106.992
110.631
114.493
118.48
122.515
126.583
130.686
134.874
139.137
143.467
147.849
152.295
156.792
161.315
165.847
170.242
174.529
178.652
182.454
185.759
188.423
190.425
191.698
42.0065
79.4159
83.4625
83.076
84.8118
86.9109
89.6698
92.7945
96.209
99.764
103.429
107.146
110.919
114.755
118.686
122.7
126.797
130.968
135.214
139.513
143.831
148.144
152.395
156.519
160.407
163.936
167.016
169.568
171.606
172.914
29.3787
65.3122
67.4072
67.1066
69.0093
71.0835
73.6901
76.5311
79.6097
82.7857
86.0752
89.4194
92.8387
96.3408
99.9504
103.658
107.463
111.357
115.337
119.38
123.466
127.57
131.64
135.607
139.381
142.839
145.884
148.388
150.373
151.401
12.4098
48.3407
48.1041
48.5595
50.2395
51.9581
54.1247
56.4166
58.8975
61.4642
64.1421
66.8646
69.6869
72.6011
75.633
78.7576
81.9879
85.3172
88.7456
92.2542
95.8415
99.4865
103.158
106.795
110.303
113.551
116.401
118.693
120.369
121.064
0.329779
25.8973
24.8179
25.989
27.0614
28.0381
29.3415
30.6831
32.1651
33.6861
35.2985
36.9598
38.6958
40.507
42.3778
44.3152
46.3291
48.4206
50.5827
52.8207
55.132
57.5235
59.9851
62.482
64.9514
67.2835
69.3507
70.988
72.0173
72.3638
5.13748
8.60162
6.58049
7.21501
7.63649
7.92578
8.2823
8.62385
8.97158
9.32012
9.65064
9.97635
10.3024
10.626
10.949
11.2852
11.6179
11.9493
12.2777
12.6014
12.917
13.222
13.5124
13.7839
14.0313
14.2493
14.4318
14.5768
14.667
14.719
341.942
256.558
208.897
158.639
51.6371
0.123223
7.18167
15.794
35.7247
85.4805
138.725
172.087
188.265
188.566
175.577
162.176
156.212
159.195
162.398
166.341
170.82
175.751
181.039
186.643
192.498
198.703
204.708
213.387
297.781
264.113
237.27
184.138
71.7997
1.66667
1.76889
24.2779
50.9639
79.1258
116.56
154.996
180.281
192.161
189.913
176.213
162.848
158.655
165.534
170.054
174.928
180.013
185.287
190.682
196.229
201.943
207.9
213.602
221.607
246.72
277.677
261.072
193.674
109.478
37.3148
18.2844
35.4197
70.5281
103.569
131.154
157.086
179.575
194.344
199.925
194.536
180.595
167.932
166.842
178.561
184.469
190.259
195.836
201.254
206.635
211.953
217.345
222.795
227.991
234.788
211.388
278.65
227.309
182.521
137.117
97.141
75.6897
93.2492
122.374
147.391
167.525
184.524
197.914
206.212
208.188
202.203
189.986
179.369
181.704
195.864
201.992
207.707
213.302
218.635
223.683
228.593
233.446
238.285
242.953
248.263
173.186
210.581
190.966
171.752
152.697
133.401
132.655
143.899
159.046
172.987
185.317
196.263
205.196
211.347
213.988
212.081
206.063
200.496
200.569
211.693
216.924
222.257
227.438
232.347
237.03
241.531
245.926
250.239
254.362
258.32
102.751
130.229
159.124
160.66
155.505
153.437
156.269
162.203
170.02
178.308
186.67
194.607
201.622
207.379
211.54
213.809
214.577
215.395
217.733
221.185
225.626
230.371
235.041
239.601
244.015
248.308
252.464
256.441
260.095
263.038
57.1074
107.232
132.664
149.881
152.866
154.068
157.044
161.388
166.806
173.082
179.807
186.543
192.873
198.577
203.502
207.63
211.106
214.449
218.132
222.181
226.613
231.213
235.827
240.37
244.772
249.046
253.107
256.858
260.094
262.321
85.1064
110.198
126.834
141.483
146.796
148.56
151.186
154.853
159.609
165.167
171.149
177.215
183.087
188.634
193.823
198.655
203.244
207.753
212.322
216.99
221.773
226.604
231.393
236.079
240.6
244.892
248.859
252.371
255.202
256.903
84.4885
116.857
128.477
135.984
137.442
139.081
141.692
145.36
150.007
155.22
160.784
166.463
172.117
177.58
182.89
188.066
193.102
198.099
203.119
208.196
213.293
218.368
223.333
228.137
232.706
236.953
240.768
244.012
246.473
247.808
75.0675
111.827
121.901
124.183
125.244
127.014
129.875
133.718
138.335
143.444
148.804
154.264
159.752
165.102
170.4
175.68
180.999
186.309
191.644
196.963
202.208
207.396
212.45
217.299
221.848
226.002
229.638
232.64
234.864
236.145
66.6451
101.614
108.856
109.562
110.795
112.892
116.061
120.056
124.657
129.634
134.818
140.093
145.394
150.689
155.986
161.324
166.718
172.086
177.482
182.898
188.276
193.567
198.685
203.562
208.092
212.181
215.704
218.585
220.788
222.174
57.9072
88.9965
93.0686
92.6423
94.3551
96.7801
100.16
104.177
108.665
113.45
118.411
123.46
128.559
133.686
138.861
144.099
149.395
154.72
160.091
165.477
170.754
175.929
180.927
185.673
190.081
194.057
197.53
200.404
202.784
204.341
45.3465
73.1358
74.8542
74.219
76.3486
78.9309
82.294
86.1073
90.2877
94.7092
99.2872
103.951
108.676
113.458
118.309
123.226
128.218
133.273
138.39
143.512
148.582
153.562
158.412
163.021
167.317
171.259
174.658
177.479
179.811
181.068
22.0774
53.3304
53.2823
53.37
55.4388
57.8283
60.7647
63.99
67.5322
71.2335
75.0748
79.0015
82.9977
87.0714
91.2146
95.4419
99.7576
104.152
108.625
113.136
117.648
122.102
126.449
130.647
134.59
138.196
141.276
143.78
145.666
146.458
7.60963
27.0264
27.2002
28.9784
30.0258
31.7403
33.6323
35.7095
37.9834
40.3475
42.8059
45.3312
47.9321
50.5847
53.3121
56.1093
58.9875
61.9398
64.9685
67.9963
71.0435
74.0717
77.0681
80.0187
82.8426
85.479
87.7635
89.5732
90.6169
90.9461
5.70506
7.68571
6.57155
7.38067
7.45966
7.92437
8.30584
8.70518
9.12585
9.5599
9.99382
10.4336
10.8704
11.3088
11.74
12.1389
12.5364
12.9242
13.3028
13.6834
14.0484
14.3986
14.7304
15.0382
15.3171
15.5632
15.7726
15.9405
16.0806
16.1264
303.942
251.396
222.504
205.286
139.859
60.5989
28.9018
30.0518
31.3839
37.3031
52.5894
87.9273
131.171
164.113
182.796
185.33
176.281
165.728
160.819
164.554
167.436
171.199
175.504
180.265
185.395
190.899
196.649
202.937
208.746
217.626
268.375
261.429
250.967
233.045
149.828
74.2841
40.4158
45.2056
55.2471
71.721
92.013
119.912
151.158
175.738
189.6
189.77
179.926
169.281
164.895
171.962
175.729
180.149
184.926
189.975
195.248
200.697
206.425
212.361
218.004
226.208
225.473
274.574
285.502
221.344
161.934
107.757
81.232
82.9729
98.8157
118.543
138.204
158.5
177.963
192.95
201.116
199.112
188.971
178.727
175.442
186.295
190.96
196.002
201.106
206.416
211.705
216.969
222.352
227.868
233.127
240.113
195.988
284.327
247.585
205.958
169.419
134.326
119.754
124.568
138.936
155.225
170.62
184.955
197.462
206.862
211.751
210.217
201.933
193.635
191.997
204.328
209.141
214.246
219.428
224.611
229.671
234.655
239.6
244.568
249.344
254.809
177.736
237.509
207.9
187.172
169.242
152.8
147.525
152.802
163.221
174.818
186.026
196.562
205.792
212.98
217.459
218.26
215.034
211.022
210.418
220.621
225.111
230.092
235.083
239.996
244.772
249.438
253.998
258.474
262.738
266.796
142.474
172.594
176.741
171.209
165.575
162.641
163.808
168.537
175.339
183.155
191.359
199.268
206.559
212.853
217.852
221.306
223.393
225.106
227.644
231.016
235.325
240.054
244.862
249.629
254.253
258.803
263.196
267.355
271.156
274.158
83.6637
118.728
151.443
160.432
160.823
161.694
164.316
168.61
174.152
180.575
187.473
194.421
201.086
207.239
212.733
217.514
221.665
225.556
229.608
233.942
238.641
243.544
248.483
253.356
258.075
262.616
266.89
270.806
274.185
276.466
54.0365
110.058
134.813
152.513
154.719
156.657
159.572
163.63
168.746
174.631
180.938
187.392
193.734
199.844
205.616
211.052
216.219
221.255
226.303
231.425
236.65
241.914
247.121
252.188
257.035
261.591
265.764
269.441
272.41
274.147
89.7042
115.514
132.768
144.619
146.604
148.416
151.268
155.173
160.122
165.849
172.008
178.344
184.656
190.782
196.727
202.531
208.236
213.886
219.527
225.175
230.811
236.389
241.827
247.044
251.953
256.462
260.475
263.874
266.444
261.492
94.35
120.887
130.939
133.925
135.087
136.747
139.606
143.685
148.789
154.598
160.677
166.909
173.164
179.393
185.556
191.679
197.757
203.768
209.767
215.731
221.616
227.389
232.966
238.251
243.146
247.546
251.343
254.444
256.704
244.993
87.5047
111.787
118.48
119.407
120.142
121.911
125.043
129.36
134.574
140.353
146.413
152.628
158.875
165.155
171.369
177.599
183.86
190.114
196.351
202.534
208.611
214.516
220.161
225.461
230.318
234.613
238.255
241.171
243.309
232.622
81.1222
98.5452
101.404
100.927
101.786
103.915
107.393
111.889
117.146
122.779
128.674
134.71
140.821
146.987
153.186
159.431
165.721
171.944
178.148
184.301
190.335
196.187
201.771
207.005
211.806
216.098
219.696
222.614
224.931
220.668
71.5611
80.3113
79.1148
78.7873
80.1708
82.7498
86.4615
90.9404
96.0005
101.282
106.803
112.446
118.2
124.027
129.925
135.887
141.888
147.898
153.905
159.88
165.759
171.469
176.927
182.127
186.942
191.145
194.707
197.627
200.005
201.281
40.1307
56.0912
53.7873
54.6617
56.5933
59.4196
63.0003
66.9936
71.3832
75.8733
80.5465
85.3327
90.2674
95.2857
100.398
105.59
110.84
116.129
121.426
126.716
131.949
137.081
142.038
146.777
151.13
154.928
158.148
160.791
162.844
163.691
17.1456
28.8288
27.4159
28.9427
30.578
32.6902
35.1661
37.7184
40.5488
43.4829
46.5807
49.7647
53.061
56.4334
59.8874
63.4024
66.978
70.5873
74.206
77.8669
81.4606
84.9068
88.0478
91.0289
93.736
96.0903
98.1079
99.7491
100.8
101.189
4.92588
6.43936
6.06609
6.91624
7.3735
7.79616
8.2305
8.59947
9.08036
9.53958
10.0042
10.4787
10.966
11.4633
11.9605
12.4616
12.959
13.4466
13.9219
14.3549
14.7736
15.1673
15.55
15.9158
16.2419
16.5312
16.7825
16.9885
17.1465
17.2029
291.285
253.639
233.496
236.717
208.114
142.927
99.9131
88.075
80.096
80.6783
87.6205
105.249
131.554
157.136
176.204
184.109
183.397
178.699
176.281
177.226
178.788
181.726
185.185
189.212
193.621
198.592
203.825
209.637
215
223.328
259.994
263.098
262.786
268.17
207.765
148.692
108.955
103.929
101.958
107.847
118.109
134.187
153.946
173.027
187.119
192.675
190.575
185.673
184.042
185.153
187.235
190.542
194.312
198.565
203.155
208.109
213.314
218.887
224.116
231.868
220.984
273.832
306.418
253.386
204.004
163.316
138.693
130.365
133.3
141.786
152.645
165.684
179.508
192.325
201.619
205.599
203.121
198.875
198.404
199.631
201.988
205.701
209.826
214.324
219.024
223.906
228.926
234.154
239.153
245.878
192.507
283.882
271.661
230.41
196.653
170.968
156.71
154.103
159.021
167.456
177.214
187.546
197.788
206.969
213.921
217.408
216.69
214.482
214.288
216.055
218.907
222.971
227.416
232.041
236.723
241.509
246.265
251.093
255.775
261.143
177.585
268.526
230.329
205.81
187.141
174.183
168.293
169.083
174.326
181.847
190.292
198.943
207.251
214.617
220.535
224.392
226.028
226.633
227.927
230.369
233.96
238.187
242.747
247.481
252.175
256.855
261.438
265.92
270.194
274.241
167.215
211.487
195.714
185.3
177.754
173.154
172.366
175.121
180.338
186.995
194.364
201.879
209.144
215.813
221.608
226.308
229.911
232.9
236.032
239.649
243.878
248.512
253.349
258.221
263.009
267.691
272.194
276.45
280.337
283.348
132.556
158.815
172.643
171.165
169.972
169.789
171.434
174.939
179.936
186
192.685
199.597
206.415
212.904
218.924
224.383
229.307
233.907
238.483
243.212
248.189
253.339
258.539
263.682
268.668
273.43
277.882
281.942
285.445
287.764
80.7044
118.402
152.089
161.386
162.714
164.1
166.554
170.311
175.26
181.049
187.416
194.074
200.756
207.289
213.575
219.585
225.347
230.953
236.514
242.106
247.757
253.423
259.015
264.436
269.592
274.398
278.766
282.608
285.727
285.612
55.5139
114.213
139.27
152.674
154.302
155.785
158.246
161.952
166.868
172.706
179.147
185.877
192.607
199.268
205.813
212.245
218.561
224.81
231.017
237.206
243.36
249.426
255.317
260.929
266.16
270.908
275.097
278.652
281.364
266.881
94.3518
120.877
137.451
142.082
142.749
143.83
146.201
150.044
155.249
161.208
167.718
174.555
181.475
188.402
195.259
202.028
208.71
215.356
221.976
228.558
235.053
241.384
247.454
253.148
258.345
262.914
265.93
265.163
264.143
248.575
114.599
124.026
127.423
127.356
127.072
127.947
130.486
134.61
139.989
146.183
152.882
159.903
166.888
173.893
180.846
187.817
194.781
201.734
208.662
215.511
222.217
228.701
234.851
240.54
245.64
250.011
251.028
250.251
249.187
236.186
114.767
110.699
109.326
107.504
106.899
108.048
111.05
115.556
121.153
127.418
134.082
140.955
147.924
154.847
161.788
168.76
175.703
182.657
189.592
196.46
203.19
209.69
215.834
221.472
226.516
230.87
234.389
236.594
236.053
226.474
110.867
89.2681
84.7947
82.6937
82.6271
84.4969
88.0616
92.7776
98.2933
104.272
110.544
116.972
123.516
130.014
136.571
143.184
149.856
156.56
163.267
169.937
176.497
182.851
188.878
194.468
199.552
203.951
207.608
210.543
212.875
214.164
70.5879
60.7125
55.2426
54.5327
55.6018
58.1969
62.0364
66.5666
71.5554
76.7925
82.2271
87.743
93.3911
99.0132
104.722
110.51
116.384
122.305
128.249
134.189
140.093
145.867
151.428
156.622
161.388
165.599
169.171
172.131
174.505
175.461
36.0136
27.7542
25.998
27.11
28.9064
31.3429
34.2145
37.332
40.6923
44.1514
47.7904
51.3848
55.1251
58.9188
62.7952
66.7506
70.7336
74.7167
78.619
82.3664
86.1131
89.7938
93.373
96.778
99.9092
102.662
105.025
106.998
108.344
108.735
11.9193
4.47607
5.97277
6.30806
6.8807
7.40254
7.94514
8.46539
8.97962
9.48086
9.97189
10.4004
10.9387
11.4512
11.9721
12.4935
13.0166
13.5642
14.089
14.6341
15.1628
15.6701
16.1474
16.554
16.9228
17.244
17.5389
17.7901
17.9626
18.0556
296.389
261.154
240.849
244.157
254.49
204.985
167.358
137.778
121.806
115.409
115.444
123.659
138.515
156.809
173.933
184.775
190.351
190.855
190.601
192.7
193.792
196.128
198.163
201.092
204.45
208.406
212.622
217.421
222.004
229.21
266.508
268.934
268.953
274.841
249.052
204.092
170.332
146.184
135.225
132.813
135.928
144.689
157.085
171.49
184.982
193.871
198.018
198.098
198.202
199.884
201.241
203.845
206.052
209.251
212.814
216.88
221.187
225.907
230.463
237.28
228.536
276.097
308.953
282.443
237.955
201.181
174.928
159.916
154.747
156.134
161.301
169.417
179.377
190.203
199.798
206.828
209.912
210.223
210.709
211.863
214.061
216.68
219.429
222.959
226.846
231.055
235.454
240.081
244.586
250.688
199.395
283.148
298.71
255.895
222.93
197.432
180.632
172.738
171.761
175.198
181.139
188.618
196.929
205.204
212.561
218.149
221.258
222.538
223.68
225.438
227.929
231.097
234.988
238.933
242.92
247.504
251.699
256.191
260.642
265.69
182.373
288.417
257.928
227.887
206.828
191.943
183.288
180.512
182.187
186.701
192.827
199.786
207.02
214.024
220.333
225.509
229.275
231.966
234.415
237.199
240.548
244.39
248.633
253.052
257.539
262.109
266.584
270.983
275.2
279.138
177.899
250.128
221.005
203.644
192.498
185.505
182.405
182.831
185.964
190.922
196.981
203.588
210.323
216.856
222.921
228.33
232.988
237.065
240.957
244.987
249.335
253.976
258.814
263.724
268.599
273.369
277.933
282.232
286.16
289.142
172.816
206.969
193.99
185.825
181.176
178.869
178.812
180.856
184.655
189.767
195.747
202.203
208.803
215.303
221.546
227.432
232.939
238.158
243.263
248.407
253.685
259.083
264.52
269.894
275.103
280.058
284.669
288.863
292.488
294.847
138.446
159.361
176.342
173.203
171.686
171.382
172.556
175.29
179.426
184.628
190.627
197.129
203.823
210.518
217.096
223.501
229.729
235.826
241.862
247.894
253.947
259.987
265.932
271.684
277.137
282.192
286.764
290.788
294.087
289.982
86.7382
122.573
155.67
162.273
161.739
161.85
163.227
166.097
170.423
175.907
182.216
188.951
195.873
202.857
209.82
216.708
223.518
230.274
236.994
243.681
250.309
256.825
263.129
269.116
274.665
279.671
284.056
285.702
286.443
270.419
59.5733
119.565
143.535
150.326
149.172
148.855
150.112
153.152
157.897
163.676
170.267
177.368
184.682
192.068
199.401
206.673
213.913
221.129
228.324
235.464
242.466
249.272
255.779
261.856
267.345
270.471
267.598
267.051
266.648
250.151
101.937
126.72
137.369
134.597
132.32
131.6
132.957
136.363
141.455
147.704
154.709
162.137
169.63
177.192
184.782
192.367
199.94
207.492
214.997
222.375
229.588
236.544
243.133
249.203
254.567
255
251.068
250.727
250.435
236.949
131.666
127.352
118.393
113.319
110.387
109.84
111.768
115.799
121.366
127.919
135.052
142.474
150.008
157.588
165.191
172.745
180.295
187.844
195.321
202.718
209.965
216.968
223.587
229.666
235.035
239.499
237.22
238.055
238.389
228.624
133.85
104.083
91.8629
86.1383
83.786
84.2214
87.0631
91.6656
97.4174
103.855
110.688
117.723
124.826
131.945
139.104
146.296
153.535
160.706
167.875
175.012
182.032
188.838
195.317
201.306
206.684
211.364
215.204
218.315
220.736
219.627
111.008
69.2662
58.9738
54.9378
54.5203
56.337
59.7983
64.3332
69.5136
75.0914
80.9586
87.0206
93.1613
99.3519
105.607
111.908
118.264
124.565
130.887
137.267
143.619
149.87
155.967
161.792
167.193
172.007
176.122
179.603
182.415
183.579
55.9631
30.7914
25.1413
24.6385
26.2739
28.7694
31.8936
35.3454
39.0089
42.8337
46.7704
50.8069
54.9285
59.1139
63.3393
67.5875
71.7567
75.8486
79.7381
83.7302
87.7704
91.825
95.8422
99.7354
103.414
106.766
109.708
112.203
114
114.534
9.82319
5.21215
4.96222
5.61762
6.18633
6.81883
7.41731
8.01023
8.59061
9.16092
9.726
10.2829
10.8358
11.3875
11.943
12.4789
12.9559
13.5323
14.1062
14.6746
15.2339
15.7861
16.3249
16.8363
17.3093
17.7297
18.0778
18.3834
18.6057
18.7252
317.538
273.788
245.432
243.729
260.081
245.801
210.91
182.503
163.032
151.666
146.358
147.354
154.442
165.123
176.956
187.382
195.116
199.464
201.619
203.573
205.114
207.296
209.363
211.644
213.778
217.2
220.007
223.691
227.635
233.284
286.728
279.023
269.85
273.471
281.022
241.216
209.443
184.906
169.362
161.263
158.601
160.894
167.234
176.564
186.516
195.354
201.757
205.357
207.464
209.329
211.025
213.009
215.174
218.072
220.582
224.187
227.319
231.035
235.014
240.535
246.982
281.462
305.666
308.276
266.476
232.733
206.996
189.13
178.96
174.854
174.97
178.375
184.23
191.696
199.485
206.467
211.626
214.799
216.952
218.836
220.873
223.164
225.718
228.693
232.236
235.675
239.719
243.657
247.511
252.73
215.739
285.149
326.728
281.178
247.517
221.996
203.83
192.611
187.3
186.426
188.561
192.772
198.365
204.688
211.037
216.753
221.256
224.484
227.023
229.429
232.034
234.957
238.25
241.8
245.597
249.596
253.697
257.842
262.22
266.687
196.019
291.87
288.353
252.146
227.52
210.35
199.231
193.384
191.76
193.185
196.658
201.43
206.958
212.79
218.517
223.781
228.308
232.091
235.451
238.752
242.244
246.009
250.049
254.28
258.634
263.057
267.448
271.741
275.899
279.764
188.787
294.151
251.477
225.671
209.441
199.152
193.329
191.161
191.87
194.688
198.952
204.125
209.785
215.602
221.32
226.75
231.777
236.419
240.842
245.246
249.785
254.503
259.368
264.305
269.232
274.066
278.703
283.064
287.059
290.073
193.626
248.413
220.971
204.536
194.612
188.927
186.348
186.287
188.288
191.885
196.637
202.144
208.062
214.132
220.173
226.075
231.788
237.332
242.787
248.247
253.783
259.395
265.03
270.604
276.019
281.174
285.967
290.317
294.084
296.512
193.429
217.971
199.064
188.618
182.203
178.806
177.751
178.722
181.433
185.506
190.654
196.538
202.836
209.328
215.863
222.363
228.8
235.186
241.55
247.92
254.305
260.668
266.932
272.997
278.745
284.067
288.873
293.115
296.614
290.827
156.531
165.454
183.507
174.777
169.831
167.193
166.591
167.933
171.078
175.699
181.421
187.779
194.546
201.549
208.636
215.741
222.846
229.95
237.054
244.141
251.175
258.094
264.799
271.166
277.054
282.354
285.714
286.814
288.586
271.837
96.4716
128.085
158.262
160.199
155.296
152.451
151.838
153.468
157.243
162.415
168.702
175.68
183.063
190.629
198.211
205.822
213.454
221.1
228.745
236.336
243.807
251.078
258.033
264.516
270.335
270.251
267.288
267.133
267.571
250.398
64.7089
125.906
145.336
142.376
136.695
133.493
133.027
135.184
139.54
145.466
152.495
159.945
167.688
175.619
183.604
191.621
199.648
207.662
215.629
223.503
231.208
238.651
245.705
252.182
257.329
253.854
249.815
250.039
250.502
236.395
53.7875
132.723
129.491
119.309
112.932
109.918
110.197
113.279
118.432
124.936
132.241
139.943
147.86
155.929
163.934
171.948
179.969
187.977
195.955
203.862
211.625
219.116
226.206
232.66
238.3
239.294
236.427
238.048
239.15
228.879
149.966
122.714
100.907
89.9073
84.2077
82.4973
84.1699
88.2919
93.9818
100.584
107.694
115.059
122.561
130.141
137.756
145.406
153.064
160.682
168.308
175.909
183.393
190.643
197.54
203.863
209.515
214.352
218.428
221.888
224.678
222.024
144.141
83.1339
64.7923
55.851
52.8908
53.388
56.4445
60.9906
66.3436
72.1077