/*--------------------------------*- C++ -*----------------------------------*\
  =========                 |
  \\      /  F ield         | OpenFOAM: The Open Source CFD Toolbox
   \\    /   O peration     | Website:  https://openfoam.org
    \\  /    A nd           | Version:  10
     \\/     M anipulation  |
\*---------------------------------------------------------------------------*/
FoamFile
{
    format      ascii;
    class       volScalarField;
    location    "100";
    object      omega;
}
// * * * * * * * * * * * * * * * * * * * * * * * * * * * * * * * * * * * * * //

dimensions      [0 0 -1 0 0 0 0];

internalField   nonuniform List<scalar> 
27507
(
0.616227
0.904657
1.56046
8.54562
16.2013
10.3024
7.35638
6.23647
6.04991
6.22418
6.61234
7.11791
7.601
7.68782
6.90663
6.30466
5.78168
5.34348
4.98078
4.68169
4.43365
4.22621
4.04971
3.90427
3.74987
0.653596
0.989592
1.57326
5.99387
13.607
7.66376
6.35854
5.92939
5.9332
6.17659
6.60401
7.15693
7.67016
7.68093
6.77358
6.16767
5.66741
5.26259
4.93521
4.66887
4.44798
4.26232
4.10312
3.97055
3.82976
0.777408
1.20783
1.73944
3.82947
129.426
7.70579
5.87504
5.51719
5.51178
5.67869
5.97686
6.42927
7.00389
7.53055
7.41404
6.42691
5.88348
5.46261
5.1353
4.87837
4.66788
4.492
4.34197
4.21112
4.10009
3.98377
1.10673
1.676
2.4655
3.52549
8.62039
104.474
164.555
8.08708
5.56654
5.1179
5.08265
5.1949
5.38965
5.6641
6.06615
6.58113
7.04555
6.80844
5.95127
5.55841
5.27128
5.05073
4.87004
4.72023
4.59212
4.47905
4.37741
4.289
4.19951
2.24657
2.76807
3.27821
4.13619
5.4167
7.8876
8.76469
6.0757
5.07379
4.75069
4.70322
4.76354
4.8701
5.00325
5.17105
5.41172
5.73695
6.02782
6.01386
5.56063
5.36523
5.20482
5.07435
4.96513
4.86802
4.77822
4.69362
4.61412
4.54335
4.47542
4.93883
4.33371
4.2755
4.62981
5.15398
5.5243
5.4441
4.95009
4.76275
4.7094
4.73469
4.7971
4.87285
4.95636
5.05264
5.17421
5.32533
5.45182
5.48527
5.4481
5.3793
5.31791
5.2585
5.19809
5.13486
5.0684
5.00015
4.93317
4.87301
4.81804
6.78085
5.24392
4.99073
5.09886
5.2548
5.28911
5.19859
5.09614
5.05195
5.04877
5.08373
5.13931
5.20221
5.26582
5.331
5.41063
5.50192
5.58471
5.63331
5.65176
5.64962
5.63531
5.6098
5.57218
5.52378
5.46637
5.40385
5.3418
5.28692
5.23877
8.53529
5.67612
5.36485
5.41405
5.4757
5.4893
5.46912
5.45686
5.46076
5.48995
5.53711
5.59455
5.65346
5.71759
5.78737
5.86429
5.94121
6.01052
6.06294
6.0957
6.11304
6.1147
6.10216
6.07214
6.02834
5.9726
5.91114
5.85138
5.79996
5.75656
10.1862
5.91423
5.60484
5.70051
5.77386
5.82321
5.85647
5.8916
5.9348
5.98599
6.04191
6.10895
6.18576
6.26665
6.35051
6.43375
6.51269
6.58309
6.64107
6.6813
6.71124
6.71839
6.71567
6.69011
6.6514
6.59807
6.53995
6.4846
6.43844
6.40249
11.5861
6.12902
5.87223
6.03613
6.13541
6.22099
6.28934
6.35326
6.42843
6.50915
6.59496
6.68828
6.78713
6.88747
6.98765
7.08562
7.178
7.26158
7.33263
7.38618
7.43001
7.44396
7.46227
7.44536
7.4219
7.37819
7.3321
7.28629
7.25061
7.22824
13.163
6.42711
6.25804
6.47153
6.60905
6.71017
6.80969
6.90595
7.0057
7.11025
7.2191
7.33367
7.45121
7.57197
7.69285
7.81309
7.92908
8.03883
8.13854
8.22602
8.29695
8.33838
8.38837
8.39029
8.40579
8.38401
8.36615
8.33699
8.32149
8.3099
16.91
6.8716
6.77748
7.0352
7.20122
7.32281
7.44553
7.56782
7.68923
7.81696
7.94712
8.08493
8.22564
8.37241
8.52073
8.67207
8.82206
8.97067
9.11366
9.24991
9.37505
9.48623
9.57698
9.63009
9.69001
9.70248
9.7539
9.75346
9.77329
9.76571
19.9029
7.47682
7.47615
7.76649
7.94294
8.09259
8.23841
8.3906
8.53836
8.69712
8.85571
9.02614
9.19902
9.38227
9.56863
9.76293
9.95915
10.1598
10.3596
10.5591
10.7534
10.9416
11.1182
11.2807
11.4206
11.5408
11.6376
11.6841
11.7554
11.752
22.5863
8.38556
8.59986
8.74029
8.9375
9.12275
9.30132
9.49843
9.6837
9.89014
10.0921
10.3126
10.5351
10.7731
11.0163
11.2725
11.5341
11.806
12.0817
12.3638
12.6466
12.9308
13.2097
13.4821
13.7422
13.9889
14.2172
14.374
14.4922
14.5103
23.4904
9.71669
9.79431
10.2888
10.4201
10.7382
10.9387
11.2153
11.454
11.7326
12.0011
12.2947
12.5918
12.9079
13.233
13.5749
13.9269
14.2938
14.6701
15.0592
15.4559
15.863
16.2742
16.6838
17.0848
17.4743
17.8479
18.1828
18.3312
18.4283
10.5027
14.0157
10.4222
12.3634
12.2187
12.6632
13.089
13.3365
13.6391
13.9481
14.264
14.5972
14.9377
15.2941
15.6611
16.0431
16.4373
16.8463
17.2669
17.7009
18.1437
18.5935
19.0438
19.4894
19.9186
20.3173
20.6611
20.9255
21.1126
21.1962
0.617164
0.892945
1.46154
6.07526
15.4597
9.84151
7.08403
6.05679
5.89906
6.07197
6.4702
7.03096
7.56249
7.58924
6.74276
6.16446
5.66905
5.25559
4.913
4.62943
4.39303
4.19426
4.02378
3.88391
3.72944
0.657678
0.985847
1.51218
4.66883
11.7129
7.36211
6.21729
5.79605
5.79866
6.03038
6.46466
7.05878
7.60967
7.55676
6.59645
6.02144
5.55207
5.17287
4.86539
4.61415
4.40466
4.22767
4.07486
3.94786
3.80895
0.772508
1.20783
1.70477
3.62016
63.187
36.1698
7.21593
5.77726
5.44795
5.42756
5.575
5.85577
6.30932
6.90559
7.4461
7.26617
6.24944
5.74178
5.35148
5.04794
4.80884
4.61191
4.44651
4.30475
4.18038
4.0749
3.96158
1.06434
1.64849
2.37293
3.30123
6.98463
45.3844
38.1938
7.266
5.45473
5.07434
5.03711
5.1329
5.30907
5.56749
5.9642
6.48349
6.94477
6.66043
5.79263
5.43259
5.17012
4.96767
4.80176
4.66397
4.54544
4.4404
4.34555
4.263
4.17753
2.00681
2.61101
3.14957
3.65528
5.04123
7.13453
7.75851
5.76223
4.98355
4.7073
4.66232
4.7128
4.80618
4.92611
5.08186
5.31278
5.62772
5.90734
5.8938
5.43264
5.25533
5.11123
4.99462
4.8971
4.81038
4.72998
4.65398
4.58225
4.51832
4.45607
4.20329
4.0951
4.12537
4.46875
4.93748
5.33866
5.30778
4.85027
4.68542
4.63449
4.65469
4.70963
4.77797
4.8545
4.94525
5.06163
5.20536
5.3264
5.36297
5.33288
5.27541
5.2247
5.17587
5.12611
5.07355
5.01774
4.95984
4.90255
4.85098
4.80403
6.1717
5.08553
4.85155
4.93315
5.08537
5.13925
5.07537
4.98313
4.94096
4.93763
4.96913
5.02019
5.07937
5.14103
5.20627
5.28388
5.37258
5.45373
5.50496
5.52868
5.53415
5.52924
5.51417
5.48867
5.45336
5.40977
5.36117
5.31237
5.26937
5.23297
7.82892
5.5509
5.23785
5.2525
5.31469
5.33422
5.32336
5.31394
5.31711
5.34367
5.38763
5.44205
5.49904
5.5619
5.62892
5.70316
5.77876
5.84834
5.90311
5.94235
5.96824
5.98064
5.98057
5.96633
5.93993
5.90337
5.86165
5.8211
5.78737
5.762
9.39175
5.80242
5.48228
5.53517
5.60189
5.65127
5.68584
5.71961
5.75826
5.80492
5.85812
5.92029
5.98918
6.06328
6.14069
6.22044
6.29802
6.36923
6.4296
6.47772
6.51577
6.53802
6.54898
6.54457
6.52883
6.50269
6.47321
6.44691
6.42879
6.42062
10.7748
6.03619
5.75063
5.88433
5.96616
6.04871
6.11456
6.17504
6.23955
6.30764
6.38033
6.45946
6.54379
6.63071
6.71892
6.8068
6.89162
6.97058
7.04055
7.10022
7.15009
7.18712
7.21628
7.22727
7.23227
7.22726
7.22273
7.22248
7.2336
7.25302
12.1935
6.35586
6.13436
6.35145
6.4402
6.54117
6.62676
6.70878
6.79023
6.87454
6.96236
7.05499
7.15098
7.25014
7.35071
7.45151
7.55011
7.6447
7.73298
7.81394
7.8862
7.94857
8.00383
8.04627
8.0859
8.11823
8.15547
8.19983
8.2602
8.31093
14.0574
6.83132
6.66189
6.94121
7.03358
7.14906
7.24882
7.34683
7.4413
7.5393
7.63922
7.74447
7.85276
7.96531
8.07986
8.19648
8.31282
8.42837
8.54121
8.65109
8.75691
8.85842
8.95482
9.04612
9.13875
9.23267
9.33886
9.45313
9.58483
9.66575
17.4008
7.51354
7.38606
7.7117
7.81189
7.94688
8.0626
8.18055
8.29153
8.40817
8.52464
8.64788
8.77361
8.90505
9.03899
9.17693
9.31613
9.45731
9.59861
9.74081
9.88302
10.027
10.1741
10.3264
10.4867
10.6602
10.8515
11.0598
11.2838
11.3981
20.553
8.5267
8.50132
8.80898
8.98497
9.1514
9.29861
9.45611
9.60133
9.75711
9.9099
10.072
10.2356
10.4064
10.5795
10.7578
10.9372
11.1191
11.3003
11.4825
11.6658
11.8525
12.0444
12.2465
12.4631
12.7023
12.9724
13.2729
13.5885
13.7362
22.4553
10.3995
10.665
10.9815
11.1802
11.4579
11.6841
11.9418
12.1827
12.4405
12.6955
12.9629
13.2338
13.5144
13.7995
14.0916
14.3865
14.6845
14.9812
15.2741
15.5573
15.8324
16.0922
16.3499
16.6045
16.8628
17.1418
17.4584
17.7959
17.9527
10.5719
14.7593
14.1764
15.2219
15.5359
16.0701
16.4693
16.893
17.3439
17.8056
18.2839
18.7667
19.2635
19.767
20.2841
20.8085
21.3458
21.8919
22.4485
23.0131
23.5844
24.1583
24.7293
25.2903
25.8293
26.3287
26.7635
27.1092
27.3313
27.4231
0.614207
0.87757
1.32702
3.29262
30.6575
14.6475
9.54643
6.74164
5.71188
5.52642
5.64673
6.01068
6.61214
7.21315
7.20956
6.36709
5.85743
5.42514
5.06406
4.76258
4.51028
4.29722
4.11585
3.95765
3.82886
3.67687
0.651807
0.975162
1.412
3.17629
92.7456
38.8563
9.66312
6.97216
5.96123
5.5054
5.45911
5.62985
6.02556
6.64196
7.23784
7.15198
6.21619
5.71831
5.31416
4.98646
4.71803
4.49612
4.30856
4.1482
4.0076
3.89141
3.75619
0.756267
1.18929
1.61766
2.82205
8.97644
10.9263
6.50653
5.56374
5.27156
5.20806
5.29605
5.51685
5.92561
6.5155
7.06298
6.85908
5.89294
5.46174
5.13046
4.8719
4.6662
4.49451
4.34877
4.22262
4.11064
4.01574
3.90901
1.00408
1.57376
2.19583
2.91315
4.93803
10.5087
16.0907
9.71124
6.24199
5.23121
4.94598
4.90046
4.95758
5.08685
5.29721
5.64949
6.1419
6.58504
6.30029
5.49409
5.19266
4.97386
4.80371
4.66429
4.54761
4.44638
4.35599
4.27368
4.20187
4.12472
1.70796
2.32985
2.88812
3.56977
4.41567
5.56035
5.80414
5.27193
4.7942
4.58995
4.54906
4.58225
4.65177
4.74595
4.87501
5.07662
5.36258
5.62156
5.61944
5.19526
5.04904
4.93265
4.83976
4.76237
4.69358
4.6296
4.56876
4.51096
4.45901
4.40734
3.23297
3.59557
3.79528
4.12264
4.53442
4.79501
4.78303
4.63462
4.51495
4.4741
4.49024
4.5349
4.59341
4.6598
4.73982
4.84561
4.97638
5.09156
5.13721
5.12164
5.08415
5.05099
5.01976
4.98771
4.95307
4.9152
4.87489
4.8342
4.79709
4.7639
5.14257
4.69639
4.53972
4.60316
4.74869
4.82323
4.80378
4.74707
4.71522
4.71611
4.74673
4.79423
4.85013
4.90979
4.97496
5.05024
5.13627
5.21815
5.27623
5.3099
5.32885
5.33982
5.3426
5.33702
5.32317
5.30211
5.27606
5.24865
5.22439
5.20596
6.57713
5.22996
4.94433
4.92671
4.98201
5.01441
5.02082
5.01929
5.02842
5.05672
5.10074
5.15484
5.21391
5.27735
5.34455
5.41819
5.49531
5.56969
5.63325
5.6845
5.72568
5.75745
5.77948
5.79106
5.79271
5.78604
5.77437
5.76218
5.75354
5.75144
7.83072
5.48087
5.17716
5.17662
5.23232
5.28152
5.31976
5.35526
5.39497
5.44312
5.49947
5.56353
5.63206
5.70565
5.78298
5.8636
5.94523
6.02443
6.09683
6.16108
6.21794
6.26604
6.30533
6.33444
6.35466
6.36754
6.37726
6.38816
6.40356
6.42479
8.912
5.68148
5.39846
5.46636
5.54323
5.6183
5.68388
5.74539
5.80682
5.87168
5.94127
6.01679
6.09716
6.18154
6.26918
6.35925
6.45009
6.5401
6.62579
6.70609
6.78099
6.84942
6.9113
6.96477
7.01251
7.05533
7.09797
7.14376
7.19759
7.24928
9.82246
5.9226
5.69177
5.8487
5.93861
6.03521
6.11968
6.19904
6.27622
6.3554
6.43822
6.52593
6.61816
6.71475
6.81492
6.91788
7.02222
7.12646
7.22898
7.32922
7.42676
7.52103
7.61192
7.69878
7.78362
7.86741
7.95443
8.04647
8.14901
8.22533
10.6877
6.25807
6.09873
6.34087
6.43969
6.55478
6.65427
6.74919
6.84064
6.93387
7.02994
7.13083
7.23621
7.34642
7.46071
7.57866
7.69917
7.82153
7.94482
8.06893
8.19373
8.31907
8.4449
8.57194
8.70163
8.83517
8.97348
9.11487
9.26355
9.35148
11.9918
6.78949
6.69383
7.01727
7.12907
7.26794
7.38748
7.50374
7.61472
7.72745
7.84166
7.96047
8.08302
8.21022
8.34119
8.47593
8.61349
8.75382
8.89647
9.0418
9.19005
9.34142
9.49689
9.65761
9.82446
9.99894
10.1774
10.3569
10.5368
10.6272
15.128
7.69661
7.69839
8.11628
8.25887
8.4461
8.60614
8.76492
8.91445
9.06515
9.21425
9.36664
9.52034
9.67652
9.83394
9.9925
10.151
10.3095
10.4678
10.6265
10.785
10.9437
11.103
11.2643
11.43
11.603
11.7799
11.9604
12.1371
12.2231
17.4018
9.53829
10.0806
10.4777
10.726
11.0357
11.3078
11.5786
11.8336
12.0868
12.3332
12.5793
12.8226
13.063
13.2994
13.5293
13.7504
13.9606
14.1613
14.3491
14.523
14.6784
14.8131
14.9281
15.0274
15.1182
15.2028
15.2952
15.41
15.4712
11.0201
14.2653
14.9299
16.538
17.0497
17.6446
18.2764
18.9068
19.5313
20.1434
20.7606
21.3768
21.9954
22.6171
23.2474
23.8712
24.4928
25.1073
25.7134
26.3063
26.883
27.4376
27.9639
28.4545
28.9019
29.2956
29.6245
29.8809
30.0619
30.1384
0.607905
0.857233
1.32551
2.25052
7.23419
86.4491
17.3293
12.2169
8.75953
6.40078
5.36764
5.08801
5.10802
5.37228
5.92675
6.52146
6.50003
5.77386
5.39353
5.06101
4.77629
4.5327
4.32391
4.1434
3.98675
3.84652
3.73386
3.58974
0.641264
0.951686
1.43078
2.22364
5.51939
68.7721
43.946
12.5769
8.16115
6.54759
5.66931
5.17374
5.03794
5.10638
5.39724
5.94955
6.5273
6.43695
5.64988
5.27971
4.97087
4.71425
4.49863
4.31595
4.15797
4.02035
3.89685
3.79591
3.66873
0.729868
1.14521
1.632
2.27458
4.06816
10.3057
17.985
11.9632
7.54159
5.90427
5.29343
5.02764
4.91122
4.92118
5.0483
5.35242
5.86195
6.37216
6.1937
5.39768
5.07755
4.82624
4.62676
4.46376
4.32481
4.2047
4.09897
4.0033
3.92268
3.82504
0.929374
1.46945
1.98231
2.67439
3.66674
5.42569
7.25706
6.59677
5.50937
4.96043
4.74968
4.69178
4.70542
4.77477
4.91406
5.17939
5.59309
5.99219
5.75723
5.09533
4.87386
4.71121
4.58229
4.47598
4.38614
4.30711
4.23566
4.16958
4.11174
4.04596
1.44172
2.05503
2.57541
3.13513
3.80657
4.56587
4.93028
4.79044
4.54036
4.40459
4.37046
4.38897
4.43412
4.4993
4.5937
4.74852
4.98242
5.20938
5.23207
4.88659
4.78062
4.69905
4.63572
4.58322
4.53659
4.49293
4.45077
4.40974
4.37225
4.33369
2.40143
3.0405
3.36497
3.69981
4.05632
4.32138
4.38857
4.33853
4.27343
4.25147
4.2677
4.30681
4.35764
4.41526
4.48398
4.57424
4.68687
4.79365
4.85263
4.8566
4.84521
4.83289
4.82267
4.81153
4.79806
4.78102
4.76086
4.73886
4.71786
4.69978
4.26837
4.13342
4.10372
4.19201
4.33416
4.43257
4.4526
4.43413
4.42162
4.433
4.46664
4.51472
4.5705
4.63022
4.69538
4.76887
4.85244
4.936
5.00363
5.0508
5.08634
5.11529
5.13848
5.15541
5.16613
5.16963
5.16772
5.16239
5.15687
5.1555
5.37877
4.76863
4.54864
4.52303
4.57253
4.61715
4.63849
4.6515
4.67243
4.70798
4.7569
4.81512
4.87907
4.94637
5.0175
5.09421
5.17576
5.25787
5.33368
5.40051
5.46014
5.51352
5.56026
5.59953
5.63111
5.65528
5.67369
5.6883
5.70179
5.71889
6.14872
5.02295
4.77173
4.74757
4.7889
4.83763
4.88119
4.92405
4.97169
5.02722
5.09079
5.16092
5.23576
5.31508
5.39845
5.48606
5.57702
5.66885
5.75792
5.8425
5.9229
5.99872
6.06912
6.13298
6.19008
6.24082
6.2867
6.32907
6.37051
6.41263
6.82772
5.16575
4.9387
4.96191
5.03124
5.10503
5.17539
5.24385
5.31302
5.38572
5.46334
5.54649
5.6347
5.72772
5.82536
5.92742
6.03304
6.14062
6.24789
6.35381
6.45822
6.56051
6.65979
6.75491
6.84572
6.93227
7.0155
7.09577
7.17942
7.2536
7.29178
5.31571
5.14124
5.24682
5.34523
5.44699
5.54156
5.63141
5.71887
5.80758
5.89978
5.99687
6.09926
6.20714
6.32043
6.43888
6.56179
6.68813
6.81668
6.94729
7.07939
7.21244
7.34577
7.47849
7.6102
7.73997
7.86739
7.99134
8.12203
8.21811
7.59647
5.54324
5.45025
5.66001
5.7823
5.91212
6.02846
6.13812
6.24339
6.3491
6.45769
6.57116
6.69017
6.81525
6.94637
7.08337
7.22579
7.37301
7.52443
7.67998
7.83978
8.00361
8.17116
8.34182
8.5142
8.68624
8.85334
9.01568
9.18201
9.28235
8.14067
5.9591
5.9651
6.28409
6.4297
6.59229
6.73438
6.86922
6.99771
7.12622
7.25658
7.39135
7.53101
7.67632
7.82718
7.98346
8.14478
8.3109
8.48157
8.65701
8.83794
9.02418
9.2142
9.40949
9.6072
9.8005
9.98912
10.1703
10.3497
10.4424
10.9413
6.82991
6.91261
7.3482
7.53547
7.75025
7.93791
8.11893
8.28907
8.45818
8.62583
8.79569
8.96732
9.14165
9.31817
9.4965
9.67602
9.8566
10.0382
10.2195
10.4008
10.5835
10.7674
10.9497
11.1298
11.3029
11.4716
11.636
11.8007
11.8809
13.1958
8.64635
9.24887
9.64054
10.0265
10.3442
10.6544
10.9569
11.2366
11.513
11.7785
12.0405
12.2952
12.5438
12.7848
13.0174
13.2388
13.4475
13.6414
13.83
14.0017
14.1585
14.2968
14.4113
14.5041
14.5742
14.6386
14.71
14.8211
14.8815
11.6978
14.4556
15.067
16.0031
17.3616
17.9414
18.7195
19.5348
20.3385
21.1652
21.9781
22.7921
23.5926
24.3715
25.1229
25.8667
26.5975
27.3175
28.0292
28.7169
29.3795
30.0112
30.6045
31.1506
31.6438
32.079
32.4508
32.756
32.9642
33.0784
0.599989
0.826116
1.1815
1.72025
2.92509
6.13132
10.4137
9.40437
8.79827
7.90038
6.79703
5.66343
4.90666
4.5561
4.45946
4.61147
4.96114
5.33962
5.47295
5.02437
4.80464
4.59168
4.39734
4.22261
4.06647
3.92655
3.80201
3.68694
3.59608
3.46941
0.627904
0.909788
1.28407
1.77306
2.81583
5.31034
8.58729
7.95213
7.07683
6.14753
5.50915
5.02896
4.6658
4.47359
4.43824
4.60802
4.95506
5.32073
5.43099
4.94411
4.73061
4.53399
4.35973
4.20642
4.07057
3.94924
3.84095
3.74091
3.66041
3.54958
0.698068
1.07715
1.47044
1.99693
2.7693
4.19387
5.62988
5.88108
5.40718
4.941
4.67206
4.5161
4.41215
4.36551
4.39117
4.56201
4.88308
5.21296
5.28388
4.78799
4.60496
4.44777
4.3158
4.20123
4.10082
4.01138
3.93088
3.85612
3.79375
3.71083
0.848178
1.34226
1.76755
2.2774
2.94409
3.83644
4.61436
4.76975
4.57353
4.38181
4.2862
4.25329
4.25031
4.26966
4.32646
4.46423
4.72375
4.98718
5.02679
4.6165
4.49519
4.3968
4.31533
4.24671
4.18707
4.13307
4.08319
4.03575
3.99406
3.94183
1.21493
1.78941
2.24901
2.71362
3.2213
3.76802
4.1746
4.25357
4.1806
4.11442
4.09699
4.11125
4.14209
4.18463
4.24461
4.34397
4.50562
4.67762
4.74597
4.5236
4.47144
4.4322
4.40234
4.37747
4.35531
4.33335
4.31085
4.28751
4.26524
4.24033
1.78402
2.50978
2.89333
3.2404
3.56208
3.82753
3.95655
3.982
3.97546
3.97923
4.00247
4.04336
4.09267
4.14666
4.20755
4.28292
4.37486
4.46865
4.53832
4.56638
4.58193
4.59526
4.60778
4.61831
4.62677
4.63034
4.62974
4.62584
4.62021
4.61599
2.88612
3.36009
3.55862
3.72576
3.88344
4.00421
4.06293
4.08271
4.09709
4.12382
4.1656
4.21889
4.27858
4.34171
4.40857
4.48166
4.56283
4.64684
4.72303
4.78473
4.83767
4.88547
4.92887
4.96729
5.00031
5.02678
5.04713
5.06155
5.07185
5.08337
4.46526
4.13574
4.05521
4.07437
4.13644
4.19609
4.23694
4.26914
4.30572
4.35291
4.41082
4.47685
4.54817
4.62247
4.70012
4.78219
4.86915
4.95882
5.04641
5.12871
5.20648
5.28047
5.35024
5.41474
5.47303
5.52432
5.5683
5.60445
5.63413
5.66131
4.83096
4.47325
4.31585
4.29788
4.33892
4.3927
4.44595
4.50073
4.56065
4.62764
4.70175
4.78179
4.8665
4.95515
5.04769
5.14461
5.24595
5.35046
5.45562
5.55956
5.66221
5.76331
5.8619
5.95654
6.04587
6.12879
6.2042
6.27032
6.32931
6.3819
5.0599
4.58002
4.45594
4.47431
4.54044
4.61789
4.69752
4.77828
4.86084
4.94666
5.03689
5.13207
5.23217
5.33715
5.44722
5.56266
5.68339
5.80858
5.93668
6.06667
6.19835
6.33126
6.46434
6.59602
6.72463
6.84865
6.96569
7.07315
7.17957
7.27394
5.21984
4.65663
4.59781
4.68856
4.79678
4.90958
5.01968
5.12625
5.23016
5.33441
5.44154
5.55333
5.67066
5.79407
5.92394
6.06054
6.20377
6.35309
6.50768
6.66711
6.83128
6.9998
7.1718
7.34574
7.51967
7.69138
7.85602
8.01195
8.17512
8.30284
5.21441
4.79569
4.83873
5.01875
5.17418
5.32662
5.46791
5.60098
5.7275
5.85252
5.97956
6.11125
6.24892
6.39354
6.54556
6.70522
6.87251
7.04713
7.22871
7.41725
7.6129
7.81554
8.02463
8.23872
8.45492
8.66859
8.87646
9.07557
9.28446
9.42129
5.19226
5.10525
5.33685
5.5893
5.79591
5.99199
6.16765
6.33026
6.48353
6.63461
6.78699
6.94382
7.10631
7.27557
7.45184
7.63525
7.82564
8.02278
8.22641
8.43668
8.65378
8.87778
9.10862
9.34193
9.57561
9.81062
10.0365
10.2545
10.4791
10.6049
7.07738
5.9158
6.32439
6.63339
6.90618
7.15771
7.38177
7.59179
7.78807
7.9818
8.17408
8.36927
8.56709
8.76896
8.97433
9.18287
9.39386
9.60674
9.82083
10.036
10.2515
10.4658
10.6794
10.8908
11.1008
11.3092
11.5085
11.704
11.907
12.0115
9.27889
7.80265
8.64698
8.98596
9.39618
9.76228
10.0931
10.4243
10.7239
11.0226
11.3104
11.5986
11.8799
12.1576
12.4284
12.6911
12.9434
13.1847
13.4108
13.6114
13.7988
13.9761
14.1583
14.3212
14.4679
14.6038
14.7271
14.8499
14.983
15.0527
5.10511
13.9421
15.7889
16.4015
17.1156
17.9339
18.6456
19.572
20.4366
21.3524
22.2635
23.204
24.1418
25.0824
26.0171
26.9399
27.836
28.7009
29.5162
30.3051
31.0599
31.7893
32.4874
33.121
33.6889
34.1885
34.6185
34.9722
35.2102
35.3331
0.59133
0.790648
1.07884
1.49109
2.01284
2.87496
3.92029
4.32848
4.66656
4.71644
4.63738
4.42119
4.14038
3.92265
3.81379
3.86343
4.00599
4.18223
4.25911
4.22013
4.1457
4.04432
3.94204
3.84104
3.74443
3.65293
3.56864
3.48742
3.42411
3.32544
0.613402
0.860398
1.17091
1.56406
2.06576
2.85365
3.80596
4.09261
4.26707
4.25184
4.1931
4.07909
3.94782
3.83404
3.78359
3.84315
3.99393
4.16363
4.22275
4.18808
4.11858
4.02823
3.93901
3.85193
3.76943
3.69153
3.61949
3.55016
3.495
3.40931
0.66575
0.99796
1.32909
1.70799
2.19781
2.82003
3.40802
3.75485
3.85874
3.8548
3.83882
3.8128
3.78302
3.75525
3.75748
3.81561
3.95665
4.10578
4.14851
4.12948
4.08334
4.01728
3.95328
3.89236
3.83512
3.78098
3.73037
3.68134
3.64065
3.57842
0.770995
1.20754
1.56681
1.95976
2.42075
2.92902
3.35189
3.57679
3.64903
3.66468
3.67756
3.69456
3.71065
3.72713
3.75512
3.81393
3.92268
4.04184
4.10284
4.10113
4.08142
4.04829
4.01628
3.98692
3.95975
3.93261
3.9069
3.88053
3.85677
3.82111
1.02704
1.53418
1.93495
2.32969
2.72992
3.11326
3.3899
3.53116
3.58601
3.61298
3.64191
3.67756
3.71646
3.75804
3.80534
3.86845
3.95413
4.04667
4.11373
4.13971
4.14856
4.15372
4.15727
4.15907
4.16049
4.15977
4.15692
4.15128
4.14418
4.13297
1.37195
2.04165
2.43125
2.78029
3.08394
3.33595
3.4987
3.58196
3.62506
3.66053
3.70235
3.75246
3.80728
3.86447
3.92484
3.9922
4.06944
4.15125
4.2246
4.27812
4.32091
4.35868
4.3929
4.42375
4.45113
4.47384
4.49174
4.5043
4.51235
4.52017
1.91885
2.65024
2.97268
3.22456
3.41754
3.5641
3.65849
3.71572
3.75958
3.80615
3.86106
3.92375
3.99128
4.06142
4.13352
4.2094
4.29055
4.37514
4.45762
4.53278
4.60206
4.66732
4.72885
4.78608
4.83823
4.88416
4.92297
4.95343
4.9762
4.997
2.86112
3.27812
3.45223
3.58151
3.68694
3.77386
3.84046
3.89602
3.95169
4.01378
4.08375
4.16034
4.24145
4.32532
4.41165
4.50114
4.5946
4.69138
4.78893
4.88467
4.97832
5.07005
5.15921
5.24451
5.3244
5.39715
5.46083
5.51296
5.55365
5.58733
3.92952
3.79077
3.78596
3.82966
3.89657
3.9685
4.03854
4.10948
4.18458
4.26548
4.35236
4.44447
4.54083
4.64068
4.74396
4.85116
4.96283
5.07872
5.19749
5.31773
5.43901
5.56095
5.68246
5.80177
5.91658
6.02431
6.12153
6.20434
6.27496
6.33732
3.87091
3.95331
3.95638
4.00713
4.08701
4.17703
4.27079
4.36691
4.46522
4.56627
4.67094
4.77984
4.89319
5.01112
5.13401
5.26241
5.39678
5.53707
5.6825
5.83236
5.98642
6.14423
6.30471
6.46589
6.6251
6.77947
6.92378
7.05348
7.17932
7.29671
3.74907
3.98413
4.07757
4.19135
4.31496
4.44377
4.57223
4.69781
4.82032
4.94194
5.0653
5.19254
5.32494
5.46339
5.6086
5.76121
5.92166
6.08997
6.26579
6.44891
6.63938
6.83698
7.04093
7.24949
7.46024
7.67039
7.8731
8.06357
8.26389
8.42922
3.55276
4.06604
4.27662
4.47014
4.65452
4.83371
5.0019
5.15885
5.30673
5.45074
5.59545
5.74426
5.89918
6.06155
6.23212
6.41152
6.6001
6.79789
7.00476
7.22082
7.44636
7.68148
7.92615
8.17941
8.43878
8.6995
8.95537
9.20205
9.46989
9.65663
3.3242
4.35514
4.68851
4.97124
5.22917
5.4666
5.67876
5.87289
6.05294
6.22712
6.401
6.57889
6.76297
6.95475
7.15469
7.36329
7.58057
7.80642
8.04049
8.28271
8.53318
8.79209
9.05926
9.33462
9.6151
9.89726
10.1713
10.4418
10.7331
10.9059
4.42685
5.02673
5.59537
5.9794
6.32899
6.63863
6.90912
7.15253
7.37718
7.59504
7.81016
8.02876
8.25066
8.47823
8.71124
8.94976
9.19293
9.4402
9.69062
9.9425
10.1933
10.4433
10.69
10.9383
11.185
11.4263
11.6595
11.8946
12.1471
12.2822
6.33766
6.91083
7.8641
8.35568
8.8431
9.27294
9.65379
10.0099
10.332
10.6483
10.9491
11.2583
11.559
11.8603
12.1586
12.4545
12.7456
13.0328
13.3202
13.6104
13.8746
14.113
14.3207
14.4995
14.6547
14.7923
14.9201
15.0511
15.2005
15.2819
10.8937
13.2205
15.0274
15.7563
16.6513
17.578
18.4861
19.4727
20.3755
21.3443
22.2126
23.228
24.207
25.2051
26.2084
27.2274
28.2515
29.2619
30.2772
31.2625
32.2023
33.0784
33.8552
34.5677
35.2017
35.7772
36.2791
36.7045
37.0295
37.177
0.582503
0.754353
0.994278
1.30219
1.65198
2.05726
2.49765
2.97172
3.31743
3.5203
3.61259
3.60282
3.54869
3.4529
3.37233
3.37598
3.41634
3.49947
3.56022
3.55115
3.54783
3.51657
3.49029
3.45137
3.40969
3.36454
3.32159
3.27667
3.24144
3.17494
0.599231
0.809716
1.07178
1.3744
1.7136
2.11679
2.54391
2.96342
3.2347
3.38351
3.46079
3.4686
3.45132
3.40771
3.36674
3.37847
3.42855
3.51142
3.5648
3.56927
3.56931
3.54392
3.52601
3.49427
3.46048
3.42358
3.38794
3.35104
3.32147
3.26427
0.637003
0.917736
1.20407
1.50174
1.84327
2.23765
2.63002
2.94624
3.14569
3.25519
3.32112
3.35683
3.37373
3.37238
3.37515
3.39622
3.45325
3.53058
3.58499
3.61198
3.61444
3.60876
3.60264
3.58653
3.5676
3.54631
3.52465
3.50182
3.48281
3.44345
0.709158
1.0792
1.38901
1.70549
2.04942
2.41193
2.73808
2.97471
3.12053
3.20824
3.2698
3.31781
3.3553
3.38607
3.41647
3.45608
3.51571
3.58841
3.64977
3.68821
3.7112
3.72417
3.72751
3.73156
3.73561
3.73045
3.73042
3.72469
3.71789
3.69971
0.875694
1.3098
1.65758
1.99666
2.32723
2.6381
2.88914
3.0598
3.16635
3.23853
3.29823
3.35404
3.40724
3.45806
3.50865
3.56379
3.62858
3.7002
3.76693
3.81878
3.86006
3.89468
3.92367
3.9494
3.97204
3.99029
4.00563
4.01648
4.02339
4.02535
1.09424
1.64929
2.02063
2.35655
2.64732
2.88976
3.06959
3.19
3.27203
3.33771
3.40034
3.46459
3.53021
3.59612
3.66257
3.7311
3.8042
3.88098
3.95619
4.02393
4.08518
4.1417
4.19401
4.2423
4.28633
4.3253
4.35873
4.3854
4.40531
4.42377
1.3823
2.07529
2.43035
2.73191
2.9626
3.13802
3.2646
3.3553
3.42778
3.49593
3.56672
3.64178
3.72008
3.8001
3.88112
3.96374
4.04911
4.13707
4.22534
4.31096
4.39346
4.47316
4.54967
4.62221
4.68976
4.75097
4.80422
4.84734
4.88014
4.90849
1.79572
2.50043
2.82157
3.06598
3.23549
3.36247
3.4607
3.54269
3.61967
3.69874
3.78271
3.87165
3.96435
4.05951
4.1565
4.25551
4.35725
4.46185
4.56835
4.67522
4.78181
4.88773
4.99201
5.09309
5.18903
5.27727
5.35499
5.41865
5.46783
5.5077
2.44418
2.92308
3.16842
3.33416
3.46003
3.56643
3.66177
3.75326
3.84589
3.94224
4.04315
4.14842
4.25744
4.36958
4.48461
4.60289
4.72503
4.85138
4.98155
5.11474
5.2505
5.38825
5.52674
5.66387
5.79663
5.92058
6.03286
6.12903
6.20886
6.27983
3.11702
3.28084
3.41494
3.53984
3.6594
3.77529
3.88967
4.00425
4.11979
4.23703
4.35688
4.48008
4.60708
4.73818
4.87373
5.01439
5.16088
5.31367
5.47268
5.63762
5.80836
5.98445
6.16476
6.34698
6.52781
6.7029
6.86842
7.01752
7.15901
7.295
2.86581
3.34844
3.5667
3.72801
3.88066
4.03262
4.18268
4.32888
4.47091
4.61051
4.75038
4.89295
5.03991
5.1924
5.35129
5.51749
5.69179
5.87472
6.06641
6.26698
6.47666
6.69539
6.92245
7.15616
7.3946
7.63638
7.87143
8.09129
8.32622
8.53161
2.55704
3.38476
3.74272
3.98129
4.1976
4.40658
4.60334
4.78548
4.9555
5.11879
5.2807
5.44546
5.61586
5.79345
5.9792
6.17412
6.37889
6.59402
6.81953
7.05571
7.30316
7.56217
7.83267
8.11406
8.40586
8.70739
9.00803
9.30174
9.63114
9.87456
2.31222
3.6089
4.09022
4.43207
4.73675
5.01906
5.27012
5.49218
5.69466
5.88749
6.07806
6.27184
6.47298
6.68275
6.90106
7.12886
7.36655
7.61435
7.87141
8.13748
8.41333
8.69931
8.99583
9.30316
9.62133
9.94549
10.2699
10.5959
10.96
11.1856
2.95882
4.31528
4.86713
5.36257
5.77831
6.15242
6.47671
6.75781
7.01393
7.25725
7.49563
7.73445
7.97697
8.22513
8.47982
8.74199
9.01069
9.28557
9.56454
9.84255
10.1203
10.3974
10.6739
10.9487
11.2242
11.4976
11.7664
12.0429
12.3475
12.5129
4.73834
6.1876
6.92203
7.69977
8.26128
8.78083
9.22452
9.61928
9.98383
10.3255
10.6569
10.9799
11.2996
11.6181
11.9367
12.2611
12.5862
12.9194
13.2679
13.5895
13.8842
14.1517
14.3896
14.5984
14.778
14.9303
15.0647
15.2026
15.359
15.4438
16.2709
11.9684
13.6601
14.8621
15.8176
16.8479
17.9027
18.9434
20.0029
21.044
22.0911
23.1179
24.1358
25.1451
26.1361
27.214
28.2813
29.3747
30.4506
31.5156
32.5605
33.5768
34.544
35.4412
36.2399
36.9132
37.5172
38.0425
38.4656
38.6609
0.574465
0.721503
0.925055
1.17375
1.44403
1.72092
2.00903
2.31129
2.57541
2.77686
2.91602
2.9931
3.0188
3.01316
2.99569
2.98971
3.00015
3.03331
3.07478
3.10099
3.12149
3.12484
3.12622
3.12316
3.12274
3.10565
3.10006
3.08545
3.07119
3.0367
0.586731
0.76374
0.988189
1.23954
1.50225
1.77926
2.06774
2.35386
2.59025
2.76525
2.88932
2.96529
3.00595
3.01446
3.01425
3.01985
3.04092
3.08031
3.12186
3.15221
3.1754
3.18847
3.19608
3.19232
3.19473
3.18305
3.18006
3.17106
3.16122
3.13211
0.613424
0.84567
1.09706
1.34834
1.61066
1.89197
2.17163
2.42372
2.62247
2.76749
2.87382
2.94983
3.00259
3.03539
3.05863
3.08235
3.1165
3.16269
3.20944
3.24885
3.27916
3.30215
3.31988
3.3313
3.33502
3.34085
3.33864
3.33834
3.33947
3.32237
0.662806
0.966421
1.23979
1.50486
1.78016
2.05766
2.3148
2.52827
2.69071
2.81088
2.90381
2.97881
3.04036
3.09108
3.13529
3.17858
3.2274
3.2831
3.33903
3.38879
3.43135
3.46752
3.49762
3.52345
3.54503
3.5625
3.57686
3.58825
3.59336
3.59363
0.755677
1.12866
1.4315
1.7243
2.00681
2.26911
2.49344
2.66854
2.79931
2.9
2.98412
3.05956
3.12922
3.19408
3.25566
3.3165
3.3799
3.44668
3.51344
3.57574
3.63278
3.68492
3.73216
3.77503
3.81355
3.84748
3.87696
3.90143
3.92002
3.93339
0.902193
1.34934
1.68596
1.99709
2.27317
2.50753
2.69434
2.83596
2.94449
3.03445
3.11655
3.19619
3.27492
3.35267
3.42949
3.50609
3.58389
3.66331
3.7428
3.81975
3.89334
3.96347
4.02975
4.09178
4.1491
4.20108
4.2469
4.2851
4.31483
4.34239
1.07001
1.64043
1.98676
2.29523
2.54916
2.74907
2.9024
3.02079
3.11835
3.20705
3.29422
3.38291
3.47354
3.56535
3.65767
3.75046
3.84422
3.93924
4.03487
4.12968
4.22294
4.31419
4.40258
4.48703
4.5664
4.63922
4.70344
4.75661
4.79753
4.83275
1.26206
1.92332
2.29099
2.58163
2.80672
2.9762
3.10807
3.21737
3.31631
3.4131
3.51193
3.61415
3.7195
3.82711
3.93623
4.04665
4.15867
4.27259
4.38825
4.50494
4.62208
4.73903
4.85457
4.967
5.07416
5.17319
5.26071
5.33344
5.38944
5.4346
1.52665
2.18723
2.56324
2.84015
3.0367
3.18859
3.31586
3.4314
3.54332
3.65607
3.77168
3.89074
4.01307
4.1382
4.26577
4.39588
4.52898
4.66556
4.80574
4.94931
5.09593
5.24492
5.39492
5.54366
5.68752
5.82161
5.94451
6.05011
6.13592
6.21222
1.95999
2.50851
2.83882
3.06951
3.24986
3.40434
3.5461
3.6823
3.81645
3.95051
4.08585
4.2236
4.36442
4.50869
4.65672
4.80909
4.96653
5.12979
5.29923
5.47499
5.65706
5.84501
6.03768
6.23258
6.42567
6.61319
6.79333
6.95468
7.10379
7.24972
2.36224
2.76029
3.05367
3.28016
3.47708
3.66061
3.83627
4.00496
4.16725
4.32511
4.48143
4.639
4.79981
4.9652
5.13614
5.31366
5.49876
5.69233
5.89484
6.10676
6.32847
6.56002
6.80083
7.04942
7.3047
7.56484
7.82023
8.05945
8.31633
8.55201
2.06129
2.83182
3.2407
3.52877
3.7822
4.02365
4.2503
4.45901
4.65192
4.83464
5.01334
5.19294
5.3766
5.56629
5.76342
5.96925
6.18487
6.41124
6.64838
6.89688
7.15749
7.43068
7.71671
8.01557
8.32868
8.65553
8.98276
9.30583
9.67891
9.97157
1.76743
3.00335
3.54864
3.94157
4.29136
4.61803
4.90724
5.15955
5.38597
5.59837
5.80553
6.01395
6.22717
6.44729
6.67574
6.91379
7.16261
7.42384
7.69484
7.97561
8.26714
8.56969
8.88432
9.21233
9.55536
9.91163
10.2682
10.6304
11.0479
11.3193
2.29926
3.60827
4.23096