/*--------------------------------*- C++ -*----------------------------------*\
  =========                 |
  \\      /  F ield         | OpenFOAM: The Open Source CFD Toolbox
   \\    /   O peration     | Website:  https://openfoam.org
    \\  /    A nd           | Version:  10
     \\/     M anipulation  |
\*---------------------------------------------------------------------------*/
FoamFile
{
    format      ascii;
    class       volScalarField;
    location    "100";
    object      p;
}
// * * * * * * * * * * * * * * * * * * * * * * * * * * * * * * * * * * * * * //

dimensions      [0 2 -2 0 0 0 0];

internalField   nonuniform List<scalar> 
27507
(
3869.26
3887.95
3939.17
4173.26
3270.17
3168.95
3059.55
2912.57
2751.29
2593.63
2436.2
2313.27
2251.41
2158.88
1921.54
1771.04
1601.48
1428.25
1252.68
1072.61
888.867
702.075
513.117
317.385
131.457
3887.83
3885.22
3912.19
4093.41
3173.62
3088.57
2982.97
2859.51
2719.41
2575.65
2431.47
2304.93
2224.33
2141.27
1918.53
1764.8
1594.43
1419.98
1243.24
1062.64
878.896
692.668
504.815
311.544
127.894
3936.37
3914.55
3886.02
3965.61
3083.54
3077.22
2992.96
2902.29
2798.25
2679.81
2553.87
2424.11
2303.17
2212.69
2119.05
1906.65
1750.25
1580.08
1405.52
1228.19
1047.47
864.176
679.007
493.099
302.81
126.528
4023.34
3978.98
3929.74
3913.54
3972.16
3936.35
3695.71
3110.41
3017.87
2942.93
2858.77
2762.99
2656.6
2544.18
2429
2316.7
2216.5
2086.07
1881.52
1727.26
1560.87
1388.46
1211.94
1031.93
849.543
665.683
481.902
294.81
126.798
4091.11
4027.55
3934.63
3904.2
3881.74
3817.79
3617.36
3296.03
3125.32
3019.66
2928.27
2835.55
2737.41
2634.21
2529.39
2424.11
2317.71
2204.55
2058.27
1862.46
1709.25
1546.07
1376.03
1200.82
1021.79
840.276
657.453
475.265
290.776
129.952
4031.44
3981.19
3900.02
3862.87
3802.34
3698.97
3517.41
3281.67
3143.04
3026.16
2922.81
2823.37
2722.75
2619.21
2512.7
2401.71
2283.68
2155.72
2004.12
1857.76
1703.87
1542.06
1373.42
1199.28
1020.93
839.792
657.372
475.792
292.768
136.96
3930.91
3910.22
3860.04
3823.55
3758.21
3636.06
3471.38
3307.99
3168.92
3047.32
2938.45
2835.17
2732.33
2627.5
2519.52
2406.6
2286.49
2157.14
2013.92
1865.34
1711.34
1550.25
1382.42
1208.84
1030.73
849.645
667.149
485.151
302.365
148.571
3859.76
3853.68
3826.14
3786.25
3717.61
3603.68
3467.45
3326.35
3193.17
3070.95
2959.25
2853.13
2748.35
2642.31
2533.41
2419.71
2299.12
2169.95
2029.51
1882.82
1729.41
1569.09
1402.13
1229.27
1051.72
870.937
688.332
504.992
321.612
165.949
3807.65
3798.23
3789.51
3751.71
3685.69
3585.52
3466.14
3339.18
3213.23
3094.14
2982.47
2875.2
2769.28
2662.39
2552.77
2438.58
2318.16
2189.95
2052.22
1907.49
1755.81
1597.33
1432.3
1261.31
1085.38
905.75
723.331
537.582
354.42
192.816
3768.79
3752.91
3755.11
3723.32
3662.39
3573.23
3465.59
3349.12
3231.57
3117.38
3007.53
2900.46
2794.05
2686.52
2576.31
2461.87
2341.86
2214.93
2080
1938.14
1789.56
1634.4
1472.91
1305.52
1132.91
955.982
774.286
585.278
404.397
232.917
3743.85
3721.96
3728.48
3699.56
3642.64
3561.66
3464.47
3358.41
3249.21
3140.34
3033.05
2926.79
2820.36
2712.51
2601.98
2487.61
2368.32
2243.03
2111.02
1972.74
1828.4
1678.1
1521.96
1360.18
1193.03
1020.85
840.688
648.205
470.117
283.935
3731.79
3702.61
3709.17
3680.72
3627.26
3553.39
3465.04
3367.59
3265.39
3161.28
3056.58
2951.4
2845.25
2737.32
2626.77
2512.83
2394.69
2271.51
2142.79
2008.71
1869.53
1725.42
1576.37
1422.36
1263.43
1099.01
922.098
726.664
550.962
345.067
3729.96
3692.82
3696.79
3667.04
3616.04
3547.53
3465.84
3374.9
3278.1
3177.86
3075.55
2971.71
2866.3
2758.96
2649.27
2536.73
2420.69
2300.51
2175.92
2047.18
1914.62
1778.42
1638.36
1494.34
1347.08
1194.63
1022.96
825.081
653.555
423.864
3739.35
3694.14
3690.65
3658.4
3609.37
3544.81
3467.9
3381.67
3289.04
3192.2
3092.52
2990.74
2887.16
2781.78
2674.4
2564.58
2451.83
2335.9
2216.93
2095.32
1971.52
1845.51
1716.66
1585.62
1455.04
1319.17
1152.69
955.022
799.98
536.765
3765.52
3711.82
3695.2
3659.41
3611.37
3549.11
3475.12
3392.17
3302.93
3209.31
3112.51
3013.41
2912.55
2810.16
2705.97
2599.74
2491.6
2381.78
2270.55
2158.41
2046.05
1933.24
1819.28
1707.06
1601.35
1488.2
1330.45
1150.04
1035.15
703.503
3774.94
3712.67
3682.71
3642.6
3593.36
3530.95
3457.57
3375.98
3288.3
3196.28
3101.17
3003.83
2904.96
2804.87
2703.38
2600.64
2497.45
2394.24
2291.09
2188.77
2088.56
1990.36
1894.06
1805.07
1729.17
1644.32
1508.23
1367.04
1299.13
879.326
3846.91
3844.77
3892.38
4070.74
3232.25
3173.72
3052.18
2902.34
2747.46
2596.13
2445.44
2310.45
2216.85
2117.29
1902.53
1756.81
1592.36
1421.41
1247.15
1068.13
885.191
699.13
510.648
316.409
128.33
3866.33
3849.65
3873.23
4012.25
3165.89
3092.22
2983.16
2860.69
2722.54
2581.91
2441.03
2309.29
2206.61
2101.68
1897.31
1751
1585.38
1413.08
1237.71
1058.19
875.3
689.845
502.459
310.562
122.479
3913.75
3889.75
3862.55
3917.18
4078.03
3082.13
3071.56
2998.65
2906.93
2802.43
2685.36
2561.48
2433.69
2308.33
2199.93
2084.5
1887.74
1737.56
1571.24
1398.45
1222.32
1042.56
860.157
675.805
490.348
301.513
119.984
3998.02
3963.7
3905.4
3880.08
3914.57
3890.08
3503.32
3098.32
3021.1
2947.8
2862.83
2766.81
2661.18
2549.28
2433.45
2315.13
2200.07
2058.39
1867.14
1715.77
1551.71
1380.8
1205.43
1026.32
844.738
661.656
478.366
292.968
118.972
4074.79
4017.94
3921.6
3883.14
3854.12
3773.98
3573.51
3283.34
3125.93
3022.84
2931.19
2838.11
2739.76
2636.09
2529.48
2419.81
2305.19
2183.07
2039.08
1850.43
1697.91
1536.13
1367.39
1193.18
1014.97
834.21
652.157
470.413
287.977
120.29
4038.73
3979.99
3892.76
3844.97
3773.49
3677.02
3507.27
3277.42
3140.18
3024.87
2921.51
2820.94
2719.52
2614.65
2506.75
2393.71
2273.15
2142.5
1990.73
1844.42
1691.09
1530.37
1362.51
1188.99
1011.35
831
649.373
468.403
288.071
124.732
3942.23
3910.74
3852.92
3805.76
3736.55
3616.01
3454.69
3296.88
3161.71
3042.38
2934.17
2830.33
2726.54
2620.78
2511.22
2396.29
2274.27
2142.87
1998.82
1849.62
1695.55
1534.72
1367.21
1194.09
1016.57
836.157
654.446
473.38
293.995
132.267
3868.27
3850.82
3816.37
3768.75
3697.81
3585.71
3450.75
3311.73
3182.14
3062.19
2950.94
2844.31
2738.37
2631.06
2520.25
2404.65
2282.47
2151.42
2009.73
1861.88
1707.77
1547.05
1379.89
1207.05
1029.8
849.572
667.784
485.883
306.997
143.857
3811.69
3794.97
3777.67
3733.04
3664.24
3564.53
3446.15
3321.6
3198.79
3081.27
2969.69
2861.53
2754.23
2645.51
2533.68
2417.24
2294.66
2164.15
2024.38
1877.83
1724.59
1564.82
1398.78
1227.12
1050.92
871.465
689.719
506.591
330.055
162.96
3767.04
3747.93
3740.14
3702.25
3638.66
3549.49
3443.34
3328.96
3213.01
3099.3
2988.92
2880.39
2772.01
2661.99
2548.99
2431.49
2308.46
2178.44
2040.46
1895.62
1744.17
1586.4
1422.61
1253.35
1079.43
901.733
720.363
536.012
363.429
187.98
3734.29
3715.26
3710.42
3677.14
3618.38
3537.02
3440.33
3334.84
3225.82
3116.34
3007.62
2899.17
2789.95
2678.71
2564.47
2446.14
2322.73
2193.11
2056.66
1913.79
1764.77
1609.87
1449.34
1283.6
1113.15
938.401
758.086
573.031
404.455
216.267
3713.53
3697.13
3689.84
3657.82
3602.33
3527.42
3438.53
3340.36
3237.11
3131.28
3024.15
2915.88
2806.12
2694.06
2578.99
2460.15
2336.66
2207.59
2072.6
1931.94
1785.82
1634.44
1477.96
1316.64
1150.83
980.409
802.067
616.864
451.171
247.559
3703.16
3689.75
3677.2
3644.64
3591.34
3521.22
3437.91
3345.12
3246.24
3143.39
3037.85
2930.17
2820.55
2708.53
2593.5
2474.74
2351.66
2223.73
2090.82
1953.11
1810.59
1663.39
1511.68
1355.67
1196.04
1031.68
855.7
669.857
506.025
284.839
3703.54
3689.2
3671.98
3638.2
3586.21
3519.03
3439.34
3350.46
3255.1
3154.9
3051.09
2944.57
2835.8
2724.55
2610.07
2491.78
2369.71
2243.66
2113.5
1979.22
1840.72
1698.35
1552.13
1402.63
1251.38
1095.03
921.177
736.743
580.35
333.975
3720.58
3695.5
3673
3636.27
3584.24
3517.97
3440.15
3353.6
3260.38
3161.83
3058.84
2952.63
2844.12
2733.03
2618.51
2500.74
2380.28
2256.44
2128.87
1998.04
1864.29
1728
1589.01
1449
1310.69
1166.51
998.592
825.489
684.492
387.084
3738.54
3691.98
3659.42
3618.14
3564.8
3498.18
3421.02
3335.9
3244
3146.52
3044.45
2939.23
2832.17
2723.02
2610.97
2497.06
2381.85
2263.75
2142.6
2020.02
1897.38
1774.43
1651.03
1530.58
1416.35
1296.11
1147.88
999.201
877.983
518.498
3806.91
3790.44
3812.76
3895.36
3201.66
3267.21
3182.44
3041.74
2881.41
2725.94
2578.1
2434.2
2301.38
2191.75
2072.38
1883.05
1741.45
1582.04
1413.61
1240.66
1062.72
880.647
695.35
507.486
314.468
126.652
3829.07
3801.5
3807.57
3852.74
3898.4
3170.72
3173.05
3091.33
2983.82
2850.75
2709.65
2570.19
2433.17
2302.98
2188.38
2062.85
1876.76
1734.68
1574.3
1404.86
1231.12
1052.84
870.923
686.262
499.459
308.656
119.664
3872.56
3844.25
3817.17
3818.61
3832.81
3126.45
3083.49
3006.5
2909.9
2800.01
2679.87
2555.69
2430.12
2304.83
2185.48
2048.66
1866.37
1721.23
1559.87
1390.17
1215.92
1037.51
855.98
672.199
487.241
299.401
116.531
3947.18
3920.41
3862.33
3825.11
3794.48
3713.59
3492.6
3263.2
3122.01
3040.96
2959.3
2868.89
2768.41
2660.09
2547.25
2431.4
2310.88
2185.98
2028.42
1847.67
1701.55
1541.49
1372.91
1199.14
1021.28
840.483
657.873
474.856
290.355
114.375
4035.86
3990.31
3891.8
3832.21
3787.41
3670.75
3476.28
3281.61
3142.27
3037.14
2941.8
2844.48
2742.8
2636.77
2528.78
2417.23
2298.95
2169.72
2020.22
1834.66
1685.76
1526.55
1359.25
1186.07
1008.75
828.591
646.924
465.429
284.042
113.649
4047.85
3981.14
3877.85
3814.73
3731.65
3599.58
3437.5
3273.65
3140.94
3027.58
2923.12
2820.55
2716.5
2610.19
2500.46
2385.64
2263
2129.71
1977.63
1831.32
1678.97
1519.28
1352.42
1179.59
1002.38
822.46
641.193
460.502
281.426
114.708
3962.14
3915.55
3839.37
3780.12
3701.49
3582.29
3435.16
3286.54
3155.82
3039.19
2931.15
2826.34
2720.93
2613.41
2502.67
2386
2262.02
2128.82
1984.12
1834.45
1680.36
1519.83
1352.66
1179.88
1002.76
822.73
641.336
460.631
282.675
117.165
3883.57
3854.74
3801.15
3743.25
3667.88
3559.97
3430.57
3297.14
3171.28
3054.09
2943.66
2836.37
2729.15
2620.12
2507.93
2390.57
2266.3
2133.37
1990.51
1841.69
1687
1525.97
1358.61
1185.79
1008.62
828.525
646.93
465.779
288.771
121.663
3823.84
3798.47
3762.45
3709.14
3637.47
3540.11
3425.25
3304.14
3184.58
3069.41
2958.54
2849.78
2741.07
2630.65
2516.89
2398.34
2273.32
2140.51
1998.95
1850.82
1696.25
1535.39
1368.44
1196.08
1019.4
839.67
657.95
476.592
302.746
130.98
3775.64
3750.98
3725.54
3679.65
3613.53
3525.27
3421.38
3309.83
3196.34
3084.12
2973.87
2864.44
2754.41
2642.37
2526.96
2406.92
2281.08
2148.22
2007.63
1860.27
1706.48
1546.51
1380.66
1209.64
1034.36
855.605
674.041
493.504
324.693
143.26
3738.49
3717.05
3695.93
3655.87
3594.9
3513.81
3418.38
3314.39
3206.5
3097.41
2988.13
2878.28
2767.06
2653.34
2536.26
2414.78
2287.99
2154.78
2014.75
1868.24
1715.61
1557.1
1393.08
1224.19
1051.11
873.974
693.321
515.169
351.415
156.233
3712.42
3696.73
3675.23
3637.72
3580.02
3504.41
3415.47
3317.38
3213.95
3107.38
2998.83
2888.46
2776.1
2660.93
2542.33
2419.58
2291.78
2158.07
2018.36
1872.75
1721.44
1564.77
1403.11
1236.99
1066.78
892.075
713.56
539.263
378.814
168.047
3696.15
3686.7
3661.8
3624.61
3568.74
3496.97
3412.38
3318.43
3218.1
3113.35
3005.36
2894.68
2781.56
2665.45
2545.72
2421.86
2293.32
2159.45
2020.29
1875.74
1725.92
1571.37
1412.4
1249.54
1082.82
911.363
736.041
565.969
405.871
178.225
3688.9
3683.25
3655.13
3617.4
3562.39
3492.68
3410.65
3319.44
3221.4
3118.08
3010.58
2899.98
2786.67
2669.94
2549.13
2424.29
2295.47
2161.84
2023.22
1879.53
1731.19
1578.91
1422.92
1263.57
1100.84
933.738
763.061
598.784
439.246
192.844
3690.83
3679.81
3649.88
3610.29
3554.39
3484.35
3402.78
3312.34
3214.78
3111.29
3002.72
2890.67
2775.86
2657.23
2534.06
2407.45
2277.4
2142.41
2002.57
1858.61
1710.76
1559.9
1406.57
1251.05
1093.78
934.284
772.435
617.109
455.527
183.807
3708.15
3672.88
3637.64
3594.2
3536.95
3466.44
3385.36
3295.87
3199.28
3096.44
2988.42
2877.21
2763.79
2647.05
2526.28
2402.97
2276.95
2145.87
2011.09
1874.32
1735.48
1595.02
1453.79
1312.4
1171.32
1029.21
883.307
738.504
577.624
278.483
3762.54
3743.36
3733.67
3745.92
3683.77
3212.98
3325.45
3276.76
3176.76
3022.3
2851.63
2692.66
2546.52
2412.21
2290.75
2179.98
2037.82
1866.1
1727.6
1572.07
1405.69
1233.82
1056.81
875.49
690.883
503.596
311.812
124.369
3786.41
3756.97
3736.82
3738.78
3687.78
3470.02
3186.88
3249.03
3190.17
3096.42
2974.7
2830.01
2684.07
2544.35
2412.66
2289.66
2174.3
2032.84
1859.42
1719.95
1563.67
1396.67
1224.19
1047.01
865.931
681.914
495.627
306.02
116.395
3826.33
3794.76
3762.02
3743.08
3678.05
3548.41
3343.14
3244.92
3186.73
3108.59
3015.7
2909.42
2790.03
2663.79
2537.4
2414.13
2292.75
2171.86
2022
1848.53
1707.23
1549.82
1382.39
1209.37
1031.98
851.271
668.157
483.57
296.787
112.618
3887.65
3862.76
3805.78
3753.34
3709.46
3602.27
3449.89
3285.48
3164.37
3068.02
2974.27
2874.08
2765.72
2651.57
2535.79
2420.08
2301.19
2174.35
2007.18
1832.95
1690.21
1532.74
1365.91
1193.26
1016.05
835.812
653.608
470.712
287.227
109.063
3972.89
3942.63
3849.21
3776.38
3692.2
3610.41
3458.19
3294.46
3163.48
3054.73
2953.5
2850.52
2743.51
2633.56
2522.8
2410.21
2291.99
2161.29
2008.14
1823.13
1676.49
1518.61
1352.06
1179.49
1002.59
822.757
641.3
459.825
279.385
106.01
4032.86
3971.55
3856.17
3777.39
3684.66
3563.16
3415.31
3271.01
3144.92
3032.3
2926.17
2821.03
2714.09
2604.99
2493.48
2377.76
2254.66
2120.76
1969.05
1821.99
1669.78
1510.22
1343.39
1170.87
993.978
814.136
632.883
452.083
273.814
103.232
3991.49
3924.6
3825.58
3752.7
3665.14
3548.43
3412.92
3276.75
3152.52
3038.5
2930.37
2824.15
2716.84
2607.28
2494.64
2377
2252.34
2118.45
1973.62
1823.2
1668.61
1507.76
1340.37
1167.4
990.151
810.057
628.552
447.654
270.205
100.125
3905.03
3862.02
3787.04
3717.98
3637.26
3531.78
3409.24
3283.29
3162.9
3048.87
2939.31
2831.41
2722.8
2612.06
2498.08
2379.18
2253.56
2119.55
1975.93
1826.2
1670.71
1508.98
1341.13
1167.84
990.265
809.808
627.813
446.626
269.779
97.3899
3837.63
3805.16
3749.08
3686.22
3610.99
3515.45
3405
3288.84
3173.44
3060.94
2951.01
2841.91
2731.92
2619.7
2504.03
2383.57
2256.78
2122.43
1979.55
1830.06
1674.2
1512.14
1344.15
1170.95
993.568
813.214
630.989
450.57
277.136
97.8832
3785.33
3756.36
3713.51
3659.42
3590.31
3503.08
3402.1
3293.97
3183.44
3073.08
2963.32
2853.33
2741.92
2628.01
2510.47
2388.26
2260.19
2125.22
1982.63
1833.29
1677.53
1515.69
1348.11
1175.63
999.339
819.736
637.859
460.705
293.518
100.596
3744.29
3720.36
3684.84
3638.02
3574.76
3494.16
3400.43
3298.45
3192.16
3083.88
2974.45
2863.66
2750.83
2635.12
2515.7
2391.62
2262.09
2126.23
1983.52
1834.28
1678.88
1517.66
1351.09
1180.17
1005.78
827.515
647.219
476.471
316.225
104.647
3714.19
3697.5
3665.05
3622.51
3563
3487.15
3398.7
3301.33
3198.29
3091.57
2982.28
2870.58
2756.3
2638.87
2517.66
2391.85
2260.81
2123.93
1980.93
1831.74
1676.72
1516.39
1351.28
1182.51
1010.52
834.159
657.495
496.226
341.638
108.969
3694.18
3685.39
3652.71
3611.73
3554.03
3481.25
3396.19
3301.9
3200.99
3095.26
2985.89
2873.43
2757.94
2639.03
2516.15
2388.71
2256.36
2118.61
1975.16
1825.94
1671.39
1511.96
1348.61
1182.45
1012.84
838.82
668.19
518.142
365.958
111.672
3682.38
3680.34
3646.49
3605.4
3548.24
3476.96
3393.72
3301.26
3201.69
3096.53
2986.9
2873.83
2757.54
2637.28
2512.73
2384.06
2250.72
2112.05
1967.96
1818.55
1664.25
1506.15
1345.11
1181.48
1014.04
843.935
682.948
545.412
394.012
120.569
3673.93
3671.44
3637.87
3595.54
3537.09
3464.89
3381.13
3288.3
3188.15
3081.77
2970.24
2855.18
2736.81
2613.91
2486.38
2355.32
2219.53
2077.87
1931.59
1780.53
1624.84
1467.09
1307.9
1146.14
981.782
820.341
674.071
547.309
390.89
105.722
3689.94
3661.82
3625.6
3580.2
3520.56
3447.81
3363.96
3271.4
3171.93
3065.98
2955.05
2841.22
2724.48
2603.3
2477.91
2349.46
2216.54
2078.27
1936.91
1792.5
1644.47
1495.61
1346.78
1196.11
1043.8
897.741
766.532
642.503
483.267
197.08
3720.3
3703.09
3686.32
3669.95
3576.72
3444.7
3351.31
3349.58
3317.95
3237.01
3125.32
2970.44
2799.5
2638.54
2493.93
2367.82
2260.65
2157.83
2027.58
1855.02
1717.11
1563.29
1398.23
1227.2
1050.92
870.246
686.242
499.446
308.89
121.764
3744.09
3716.74
3691.3
3669.42
3590.96
3475.97
3375.24
3337.61
3272.61
3178.52
3068.47
2933.32
2782.43
2634.76
2496.82
2371.25
2258.08
2148.09
2022.26
1848.5
1709.18
1554.68
1389.23
1217.78
1041.45
860.974
677.517
491.669
303.293
112.903
3780.38
3747.17
3713.43
3666.56
3620.51
3522.3
3415.73
3316.88
3217.3
3114.51
3007.77
2888.1
2758.08
2626
2498.17
2376.7
2260.78
2144.16
2014.42
1838.19
1697.51
1541.8
1375.74
1203.8
1027.26
847.048
664.248
479.89
294.122
108.333
3828.47
3801.95
3753.79
3696.97
3623.61
3555.01
3434.25
3304.52
3186.81
3079.67
2974.97
2863.35
2744.92
2623.95
2504.25
2387.05
2270.24
2146.92
2006.24
1825.34
1682.97
1526.46
1360.43
1188.34
1011.62
831.872
649.801
466.835
284.21
103.376
3898.88
3877.25
3797.71
3723.44
3641.35
3565.98
3441.35
3303.39
3178.69
3067.1
2961.15
2853.55
2741.85
2627.65
2512.74
2397.33
2277.98
2149.29
2004.44
1817.28
1670.84
1513.08
1346.82
1174.68
997.968
818.144
636.631
454.844
274.94
97.9198
3979.02
3935.88
3822.56
3734.64
3640.03
3526.92
3396.41
3266.48
3146.27
3034.7
2927.28
2820.05
2710.92
2599.53
2485.98
2368.65
2245
2112.11
1962.61
1815.94
1663.85
1504.16
1337.26
1164.64
987.596
807.503
625.92
444.583
266.32
91.1822
4004.62
3928.5
3809.75
3723.46
3628.69
3516.88
3393.47
3268.61
3150.49
3038.91
2930.95
2823.44
2714.37
2602.77
2488.07
2369.02
2243.69
2110.04
1966.12
1815.72
1660.81
1499.52
1331.77
1158.43
980.735
799.989
617.77
436.002
257.461
81.8776
3935.61
3872.75
3775.3
3695.4
3608.55
3505.07
3390.13
3272.3
3157.51
3046.47
2937.87
2829.53
2719.68
2607.21
2491.3
2370.78
2244.06
2109.56
1966.04
1815.95
1659.95
1497.58
1329.04
1155.01
976.603
795.165
612.161
429.821
250.477
71.386
3855.79
3813.56
3738.32
3666.66
3587.59
3493.31
3387.66
3277.14
3166.24
3056.45
2947.59
2838.33
2727.35
2613.58
2496.07
2373.9
2245.72
2110.33
1966.82
1816.5
1659.77
1496.77
1327.8
1153.53
974.995
793.419
610.04
429.136
253.161
64.8751
3794.92
3762.45
3704.28
3643
3570.99
3484.73
3386.98
3282.69
3175.44
3067.13
2958.19
2847.97
2735.61
2620.24
2500.96
2376.98
2247.29
2110.85
1967.01
1816.37
1659.28
1496.07
1327.16
1153.44
976.082
795.39
612.477
437.057
269.75
63.2345
3749.06
3723.66
3676.71
3624.36
3559.07
3479.21
3387.55
3288.06
3183.86
3076.82
2967.76
2856.56
2742.7
2625.56
2504.45
2378.57
2247.27
2109.66
1965.25
1814.31
1657.16
1494.18
1326.01
1153.94
979.096
800.283
619.499
454.441
298.129
65.8551
3715.24
3697.94
3657.77
3611.54
3550.82
3475.29
3387.88
3291.82
3189.81
3083.63
2974.27
2862.01
2746.65
2627.74
2504.8
2377.15
2244.25
2105.47
1960.5
1809.3
1652.22
1489.81
1322.81
1153.12
981.279
804.637
628.982
479.824
334.569
72.7704
3692.24
3683.7
3646.62
3603.3
3544.61
3471.51
3386.67
3292.74
3192.04
3086.24
2976.42
2863.13
2746.43
2625.91
2501.15
2371.82
2237.55
2097.61
1951.83
1800.32
1643.23
1481.27
1315.96
1148.97
979.206
804.421
637.473
507.702
370.659
77.7952
3678.2
3677.81
3641.39
3598.27
3539.81
3467.72
3384.06
3291.11
3190.99
3085.21
2974.8
2860.6
2742.78
2620.88
2494.56
2363.91
2228.34
2087.16
1940.51
1788.43
1631.26
1470.39
1307.45
1142.68
973.924
802.663
649.562
540.259
409.114
90.3829
3666.04
3667.85
3632.78
3588.56
3528.58
3455.29
3370.52
3276.72
3175.71
3068.51
2956.3
2840.34
2720.63
2596.51
2467.96
2335.06
2196.78
2053.06
1904.56
1750.5
1592.2
1432.42
1271.47
1107.44
940.746
779.841
646.66
550.95
417.746
93.1677
3682.73
3658.04
3621.64
3574.86
3513.66
3439.53
3354.24
3260.67
3160.42
3053.91
2942.39
2827.72
2709.72
2587.11
2460.61
2330.29
2194.82
2055.48
1912.78
1765.5
1614.76
1464.49
1314.84
1162.15
1007.92
865.608
749.866
653.332
519.951
212.537
3677.98
3663.26
3647.57
3597.69
3524.18
3461.73
3400.53
3331.55
3258.81
3163.22
3046.21
2907.5
2761.48
2618.69
2483.09
2356.95
2238.67
2120.49
1989.69
1850.88
1709.13
1554.92
1390.89
1220.59
1044.95
864.857
681.402
495.081
305.713
119.036
3700.44
3676.38
3650.77
3602.39
3536.77
3476.55
3409.56
3319.5
3231.31
3127.19
3008.88
2877.95
2740.86
2606.17
2476.22
2352.8
2234.46
2114.29
1982.77
1843.26
1701.02
1546.54
1382.14
1211.5
1035.83
855.983
673.022
487.557
300.35
109.147
3733.64
3701.12
3669.4
3621.79
3556.69
3477.97
3389.96
3297.16
3194.27
3086.12
2972.3
2850.02
2723.31
2596.68
2472.05
2350.51
2230.56
2107.39
1974.37
1834.08
1690.4
1534.77
1369.8
1198.67
1022.77
843.052
660.62
476.395
291.55
103.99
3772.68
3743.22
3703.55
3648.81
3578.99
3489.07
3387.61
3277.88
3167.26
3058.1
2947.52
2832.34
2713.91
2593.67
2473.77
2354.08
2232.89
2105.76
1968.46
1824.22
1678.41
1521.44
1355.96
1184.52
1008.3
828.498
646.59
463.502
281.567
98.0023
3824.59
3804.39
3742.7
3672.96
3592.79
3493.41
3384.47
3268.6
3155.51
3046.21
2937.75
2826.96
2713.24
2597.21
2479.74
2360.49
2237.42
2107.07
1966.8
1817.48
1667.98
1509.56
1343.53
1171.43
994.779
814.819
633.057
450.706
271.131
90.2987
3897.75
3872.99
3774.98
3688.61
3597.17
3493.62
3379.8
3262.41
3148.87
3039.57
2932.09
2823.47
2712.48
2598.83
2482.38
2362.5
2237.44
2105.13
1962.62
1813.92
1661.06
1500.97
1333.89
1160.98
983.514
802.941
620.76
438.473
259.751
79.8211
3963.34
3907.75
3784.08
3689.64
3593.42
3488.73
3376.38
3261.59
3149.6
3040.8
2933.52
2825.41
2715.15
2601.95
2485.29
2364.37
2237.87
2104.09
1961.36
1812.05
1657.09
1495.45
1327.25
1153.36
974.753
792.937
609.722
426.512
245.842
64.6847
3957.56
3880.51
3762.99
3673.3
3581.77
3481.55
3374.32
3264.22
3154.84
3046.88
2939.5
2831.18
2720.65
2606.95
2489.43
2367.24
2239.29
2104.3
1961.11
1811.13
1654.8
1491.9
1322.64
1147.57
967.646
784.484
600.048
416.062
234.098
48.6281
3881.75
3823.69
3729.41
3649.78
3567.17
3474.6
3374.06
3269.21
3162.76
3055.86
2948.36
2839.38
2727.95
2613.2
2494.34
2370.68
2241.2
2104.98
1961.18
1810.44
1653.12
1489.31
1319.26
1143.42
962.738
779.005
594.174
412.4
235.229
38.8875
3806.32
3767.34
3696.34
3629.3
3555.12
3470.13
3375.93
3275.71
3171.94
3066.02
2958.3
2848.4
2735.7
2619.49
2499.04
2373.74
2242.73
2105.2
1960.62
1809.22
1651.28
1487.07
1316.94
1141.6
962.431
780.212
595.895
420.929
254.288
35.2269
3751.56
3724.47
3669.62
3613.62
3547.02
3468.29
3379.11
3282.52
3180.82
3075.53
2967.4
2856.42
2742.26
2624.37
2502.23
2375.16
2242.63
2103.88
1958.47
1806.59
1648.4
1484.38
1315.13
1142.18
967.331
788.711
606.256
443.708
291.129
37.1257
3713.55
3695.9
3651.64
3603.57
3542.38
3467.74
3381.96
3287.79
3187.36
3082.32
2973.57
2861.44
2745.81
2626.26
2502.39
2373.69
2239.68
2099.88
1953.91
1801.63
1643.49
1479.94
1312.03
1142.55
972.606
797.198
620.326
479.87
346.471
48.8581
3688.5
3680.37
3642.1
3598.14
3539.32
3466.64
3382.71
3289.78
3189.92
3084.79
2975.35
2862.09
2745.08
2624
2498.49
2368.34
2233.06
2092.11
1945.37
1792.72
1634.43
1471.3
1305.39
1139.16
971.674
797.375
631.032
519.969
404.579
61.6427
3674.7
3675.36
3638.87
3595.2
3536.35
3464.19
3380.71
3288.08
3188.3
3082.82
2972.69
2858.49
2740.34
2618.01
2491.22
2359.8
2223.31
2081.28
1933.69
1780.49
1622.22
1460.5
1297.33
1133.26
965.557
793.589
644.782
563.948
463.127
84.2134
3663.21
3667.4
3632.25
3587.11
3526.37
3452.67
3367.75
3274.11
3173.3
3066.47
2954.87
2839.41
2719.83
2595.7
2467.11
2333.5
2194.53
2050.7
1901.41
1746.4
1587.66
1427.66
1266.4
1102.25
935.674
775.355
651.756
590.113
491.721
109.09
3682.44
3659.52
3623.33
3575.69
3513.42
3438.49
3353.14
3259.85
3159.63
3053.45
2942.64
2828.61
2710.9
2588.67
2462.43
2331.76
2196.55
2058.38
1915.99
1768.18
1618.23
1470.01
1322.81
1172.14
1021.09
885.206
784.045
720.771
624.588
272.666
3636.29
3624.36
3611.06
3566.3
3503.6
3434
3371.02
3306.34
3230.83
3136.89
3027.11
2901.16
2766.63
2631.23
2498.38
2369.53
2243.85
2118.07
1985.32
1845.93
1701.3
1546.67
1383.42
1213.82
1038.81
859.283
676.377
490.549
302.314
116.354
3656.54
3636.66
3613.76
3567.49
3509.43
3441.35
3374.14
3299.18
3212.81
3112.11
3000.58
2878.06
2748.71
2618.04
2488.91
2362.04
2236.86
2110.61
1977.5
1838.11
1693.38
1538.57
1375.05
1205.28
1030.24
850.888
668.443
483.31
297.3
105.427
3686.46
3657.3
3627.45
3580.83
3521.96
3451.21
3372.57
3284.86
3187.42
3082.78
2972.11
2854.09
2731.42
2606.83
2481.76
2357.12
2232.1
2104.66
1970.15
1829.83
1683.94
1528.28
1364.29
1193.86
1018.52
839.169
657.087
472.811
289.01
99.9882
3720.03
3689.08
3655.55
3603.18
3537.98
3459.1
3368.92
3270.12
3166.45
3060.33
2951.22
2837.63
2720.08
2600.08
2478.79
2356.04
2231.15
2101.87
1964.67
1821.89
1674.23
1517.32
1352.47
1181.34
1005.48
825.871
644
460.533
279.164
93.2205
3757.64
3734.62
3688.01
3625.5
3550.43
3462.87
3364.77
3260.07
3153.85
3047.49
2940.02
2829.7
2715.88
2599.32
2480.2
2358.26
2232.64
2101.27
1961.79
1816.36
1665.96
1507.46
1341.66
1169.6
992.818
812.681
630.536
447.514
268.149
83.7898
3811.81
3794.49
3719.09
3641.69
3557.49
3463.7
3361.72
3255.15
3148.35
3042.31
2935.97
2827.45
2715.94
2601.18
2483.11
2361.27
2234.61
2101.65
1960.79
1813.35
1660.33
1500.05
1332.85
1159.66
981.643
800.379
617.428
434.107
254.846
70.1365
3881.13
3851.76
3741.71
3650.42
3559.24
3462.47
3360.08
3254.46
3148.67
3043.35
2937.59
2829.94
2719.42
2605.32
2487.36
2364.97
2237.13
2102.8
1960.74
1812.03
1657.03
1495.07
1326.32
1151.51
971.607
788.599
604.537
420.071
237.84
51.0562
3927.05
3865.42
3741.52
3646.88
3555.46
3460.15
3360.39
3257.57
3153.64
3049.14
2943.6
2836.03
2725.46
2611.14
2492.64
2369.23
2240.15
2104.52
1961.44
1811.53
1654.93
1491.4
1320.95
1143.98
961.798
777.276
592.359
407.125
223.625
31.8499
3900.55
3829.49
3718.58
3632.5
3547.99
3458.18
3362.94
3263.66
3161.82
3058.11
2952.47
2844.38
2733.04
2617.87
2498.27
2373.56
2243.14
2106.24
1962.12
1811.05
1653.15
1488.21
1316.32
1137.78
954.499
770.184
585.1
401.649
224.002
19.6864
3822.63
3772.48
3688.15
3616.37
3541.01
3457.98
3367.66
3271.75
3171.72
3068.55
2962.52
2853.5
2741.01
2624.54
2503.48
2377.32
2245.41
2107.2
1962.1
1810.1
1651.39
1485.99
1314.03
1136.11
954.769
772.566
587.157
410.241
245.374
14.3609
3753.37
3722.38
3661.89
3603.92
3536.97
3459.92
3373.7
3280.39
3181.57
3078.5
2971.81
2861.62
2747.74
2629.7
2507.09
2379.41
2246.11
2106.65
1960.69
1808.15
1649.21
1484.42
1314.23
1140.21
964.771
785.502
599.203
436.25
290.874
16.1185
3708.12
3690.12
3644.99
3596.85
3536.03
3462.9
3379.3
3287.47
3189.16
3085.78
2978.23
2866.82
2751.52
2631.93
2507.79
2378.69
2244.19
2103.85
1957.25
1804.32
1645.6
1481.39
1313.27
1144.83
977.622
802.006
618.122
481.538
365.042
31.0576
3681.55
3674.2
3637.62
3594.48
3536.34
3464.77
3382.3
3290.93
3192.57
3088.68
2980.25
2867.69
2751.06
2630.11
2504.58
2374.22
2238.65
2097.38
1950.12
1796.92
1638.06
1474.31
1308.39
1144
980.672
806.281
633.401
535.782
449.143
51.9198
3669.8
3671.7
3637.23
3594.18
3535.7
3464.12
3381.48
3289.85
3191.12
3086.68
2977.48
2863.96
2746.24
2624.29
2497.8
2366.32
2229.75
2087.63
1939.73
1786.2
1627.58
1465.71
1302.78
1140.11
974.599
800.543
649.092
594.34
532.417
86.0746
3661.72
3667.36
3633.36
3588.08
3527.27
3453.8
3369.52
3276.66
3176.81
3071.19
2960.75
2846.07
2727.18
2603.86
2475.75
2342.31
2203.68
2060.13
1910.78
1755.88
1597.31
1437.51
1276.22
1112.73
946.828
784.9
664.941
637.129
582.355
133.343
3684.81
3662.8
3627.2
3579.02
3516.26
3441.27
3356.52
3263.88
3164.39
3059.36
2949.97
2837.06
2720.28
2599.15
2473.44
2343.23
2209.5
2072.58
1930.57
1783.42
1635.12
1489.54
1344.47
1196.48
1049.67
918.814
829.116
802.543
751.134
341.346
3596.16
3586.84
3575.01
3533.61
3477.02
3413.12
3348.75
3280.61
3202.31
3110.3
3005.78
2888.8
2763.37
2634.67
2505.65
2377.47
2249.32
2119.16
1983.74
1842.37
1695.13
1539.81
1376.86
1207.67
1033.08
854.013
671.59
486.254
298.98
114.038
3613.91
3598.39
3577.66
3532.99
3478.27
3416.12
3348.78
3274.92
3190.31
3094.13
2987.58
2871.66
2749.35
2623.62
2496.94
2369.97
2242.09
2111.82
1976.22
1834.9
1687.57
1532.07
1368.95
1199.67
1025.1
846.191
664.174
479.357
294.469
102.775
3640.22
3615.67
3587.9
3540.85
3486.14
3421.33
3348.03
3265.57
3173.83
3074.04
2967.22
2853.69
2734.76
2612.84
2489.13
2363.88
2236.64
2106.04
1969.67
1827.67
1679.6
1523.39
1359.9
1189.87
1014.86
835.841
653.991
469.821
286.745
96.6247
3669.84
3640.06
3609.53
3560.14
3498.83
3427.18
3345.85
3255.91
3159.34
3057.7
2951.5
2840.45
2724.83
2606.1
2484.66
2360.97
2234.03
2102.71
1965.05
1821.52
1672.12
1514.84
1350.32
1179.39
1003.6
824.147
642.086
458.376
277.34
89.3924
3699.4
3672.85
3636.55
3579.64
3510.92
3431.78
3343.83
3248.96
3149.86
3047.8
2942.67
2833.86
2720.99
2604.78
2485.15
2362.17
2234.95
2102.43
1963.09
1817.64
1666.28
1507.45
1341.39
1169.45
992.598
812.121
629.394
445.754
266.351
78.9186
3735.65
3717.63
3662.5
3595.95
3519.58
3434.76
3342.89
3245.75
3145.79
3043.96
2939.89
2832.68
2721.75
2607.05
2488.41
2365.54
2237.68
2103.91
1963.21
1816.02
1662.52
1502.01
1334.44
1160.78
982.174
800.224
616.471
432.155
252.143
63.1399
3789.86
3774.54
3687.91
3607.86
3525.19
3436.98
3343.74
3246.54
3147.05
3045.81
2942.43
2836.11
2726.17
2612.19
2493.79
2370.55
2241.81
2106.84
1964.85
1816.16
1660.75
1498.23
1328.77
1152.84
971.693
787.78
602.93
417.247
234.072
42.0597
3850.3
3817.38
3703.94
3613.78
3527.89
3439.27
3346.99
3251.22
3152.85
3052.25
2949.2
2843.02
2733.15
2619.05
2500.24
2376.23
2246.43
2110.24
1967
1816.84
1659.58
1495.02
1323.29
1144.71
960.883
775.417
589.562
402.597
218.682
21.1187
3874.69
3813.7
3698.6
3610.64
3527.76
3442.31
3352.79
3259.2
3162.13
3061.97
2958.77
2852.14
2741.61
2626.69
2506.92
2381.77
2250.74
2113.27
1968.75
1817.07
1658.22
1492.09
1318.69
1138.2
953.21
768.415
581.779
395.299
217.965
6.49274
3833.05
3773.06
3676.91
3601.68
3526.78
3446.71
3360.75
3269.39
3173.37
3073.3
2969.48
2861.88
2750.2
2634.03
2512.92
2386.41
2254.03
2115.32
1969.67
1816.99
1657.45
1491
1317.37
1137.06
954.217
772.216
583.861
402.817
241.23
-0.280251
3757.8
3720.53
3652.97
3593.6
3527.4
3452.7
3369.85
3280.12
3184.57
3084.12
2979.37
2870.5
2757.39
2639.75
2517.15
2389.26
2255.62
2115.76
1969.43
1816.5
1657.15
1491.63
1319.98
1143.9
967.624
788.308
596.029
429.801
295.635
1.29192
3700.85
3682.19
3637.3
3590.06
3530.32
3459.21
3378.2
3289.14
3193.41
3092.22
2986.38
2876.19
2761.65
2642.52
2518.54
2389.43
2254.75
2114.13
1967.26
1814.14
1655.25
1490.59
1321.8
1153.17
987.263
810.298
616.093
480.686
387.768
18.253
3671.49
3665.85
3632.51
3591
3534.06
3464.09
3383.48
3294.17
3197.84
3095.79
2988.87
2877.49
2761.69
2641.27
2516.07
2385.84
2250.3
2108.95
1961.51
1808.17
1649.02
1484.89
1318.86
1155.8
995.231
817.888
632.92
545.296
494.062
44.568
3662.77
3666.72
3635.4
3593.57
3535.98
3465.44
3384.12
3293.99
3196.85
3094
2986.21
2873.88
2757.11
2635.86