/*--------------------------------*- C++ -*----------------------------------*\
  =========                 |
  \\      /  F ield         | OpenFOAM: The Open Source CFD Toolbox
   \\    /   O peration     | Website:  https://openfoam.org
    \\  /    A nd           | Version:  10
     \\/     M anipulation  |
\*---------------------------------------------------------------------------*/
FoamFile
{
    format      ascii;
    class       surfaceScalarField;
    location    "100";
    object      phi;
}
// * * * * * * * * * * * * * * * * * * * * * * * * * * * * * * * * * * * * * //

dimensions      [0 3 -1 0 0 0 0];

internalField   nonuniform List<scalar> 
81522
(
542.308
-14.9225
20.014
124.484
-26.4212
66.2153
125.318
126.094
126.642
106.617
0.361811
17.5109
-17.4432
2.38355
5.1087
2.43826
2.51478
2.49991
2.50023
-26.8686
11.13
-7.31784
23.0866
-42.2991
-3.72972
-2.32809
48.3586
-61.7572
64.9873
-2.9226
-0.305553
-73.3246
76.1736
-2.48588
-0.362704
-86.0061
89.7375
-2.55311
-1.17811
-102.059
106.473
-2.57315
-1.84124
-120.246
124.806
-2.48105
-2.07876
-136.706
139.572
-1.68018
-1.18582
-143.142
142.478
-0.193408
0.856934
-135.87
520.256
0.885492
15.4076
-134.061
-134.255
-132.366
1924.38
-42.3155
93.1994
-504.601
-491.727
-495.826
-483.149
1898.13
-58.5573
84.807
1890.19
-69.0795
77.03
1893.77
-74.5997
71.0265
1903.64
-76.2368
66.373
1916.43
-75.2721
62.4748
1930.15
-72.7118
58.9634
1943.91
-69.4186
55.6012
1957.69
-66.2929
52.4108
1973.09
-64.543
49.0412
-64.0684
46.9033
544.578
-32.8285
22.386
126.667
-61.5017
69.17
127.59
127.722
128.551
0.462457
113.159
-3.51986
16.5896
-7.64627
-21.5345
8.2456
4.50091
4.17352
4.05584
3.99048
4.2216
-21.6597
14.0083
-22.5679
2.47355
27.7408
-39.6289
15.7194
0.232386
-19.3202
43.0006
11.8441
-52.0463
54.8209
-14.7744
0.158432
10.2645
-62.8744
65.5884
-12.9409
-0.0367793
10.1933
-74.2498
77.3621
-12.737
-0.567413
10.0925
-87.3636
90.8716
-12.534
-1.06643
9.53451
-101.568
105.059
-11.7487
-1.27681
6.89663
-114.579
117.193
-8.63205
-0.879192
2.08233
-122.328
122.957
-3.04102
0.330088
-120.842
1.99797
466.282
-7.66488
11.8132
-116.872
-119.292
-115.431
1743.94
-114.576
81.041
-455.961
-427.354
-448.37
-421.103
1747.27
-137.117
75.2157
1760.37
-151.368
69.21
1779.77
-158.374
64.3961
1802.38
-159.428
60.5902
1825.98
-156.333
57.4448
1849.15
-150.602
54.664
1871.16
-143.605
52.0246
1892.01
-136.954
49.5694
1912.91
-132.505
46.833
-131.608
46.5392
543.044
-52.4668
27.7248
126.635
-97.0214
75.6506
123.704
127.585
125.048
8.25656
116.671
-13.8483
15.5825
-6.25815
-25.6743
23.5888
4.89478
3.45176
9.53924
7.68172
-18.0384
0.831016
-26.4262
35.08
-37.6344
1.66187
27.3209
28.2179
-31.3612
0.725414
33.106
-30.6845
23.0426
-39.0157
41.1416
-25.5825
0.417554
20.8238
-47.8176
50.1306
-23.3106
0.175304
20.1646
-57.3655
59.8855
-22.5046
-0.178654
19.5369
-67.7427
70.4248
-21.7166
-0.50189
17.9779
-78.4177
80.9842
-19.9096
-0.634411
13.7198
-88.0546
90.1041
-15.391
-0.378453
6.73375
-94.8949
95.9424
-8.22983
0.448677
-96.3571
17.3462
375.821
-29.7679
10.3339
-91.4043
-95.386
-90.5909
1449.39
-222.441
70.5826
-372.329
-337.271
-367.893
-334.655
1486.42
-240.551
66.3973
1523.79
-250.693
61.9678
1561.21
-254.082
58.3038
1598.07
-251.586
55.3104
1633.62
-244.692
52.7891
1667.19
-234.802
50.5674
1698.32
-223.395
48.5095
1726.9
-212.449
46.693
1753.84
-204.295
44.6434
-201.122
45.4885
521.714
-65.6367
36.1887
453.71
-116.197
87.2561
91.9547
-92.4193
130.526
18.1267
10.86
19.7877
12.7652
81.5463
95.306
85.3706
-7.19389
80.2549
-4.51027
23.4388
-11.3545
-17.9021
17.5685
7.0649
4.63186
-2.19449
1.04075
1.22676
-0.0515015
-3.9775
4.06277
-3.49332
3.40993
48.4498
-20.2689
18.1111
-48.6281
2.33896
43.217
-16.2795
1.16224
16.5446
-44.6403
37.0385
-18.8404
19.9744
-38.8665
0.69678
32.4626
-24.1473
25.6972
-34.4928
0.483004
30.1049
-30.6608
32.376
-32.1178
0.299621
28.892
-37.6903
39.4937
-30.7796
0.0868661
27.6317
-44.996
46.823
-29.3776
-0.0794539
25.2603
-52.2335
53.9673
-26.9011
-0.091824
20.4713
-58.9579
60.5196
-22.2116
0.178934
13.6886
-64.9174
66.2446
-15.8135
0.798506
-68.8236
46.3081
273.908
-64.4949
9.47082
-63.9655
-68.5449
-63.8551
1110.81
-355.268
60.9564
-276.786
-242.382
-276.164
-243.619
1173.23
-361.407
58.45
1229.63
-362.613
55.5306
1282
-359.383
52.9377
1331.22
-351.521
50.7255
1377.42
-339.737
48.8206
1420.4
-324.997
47.1462
1459.87
-308.625
45.6302
1495.55
-292.714
44.3851
1528.09
-279.953
42.9201
-273.335
44.8176
425.266
-59.742
48.702
308.987
-102.372
102.565
198.886
-112.794
130.567
34.6906
-122.263
40.2342
11.2866
5.15151
14.7262
8.708
19.1433
40.7943
24.9886
43.8204
36.6313
41.1595
6.8265
30.1691
-29.6988
27.4427
8.94768
-6.40558
6.13461
4.28918
-12.9671
22.6138
-6.5411
7.10125
4.07604
-27.248
41.2276
-7.49446
22.437
-185.842
17.2646
44.6271
41.6616
44.8311
-8.11568
-4.97203
-5.59885
50.5038
-15.6017
10.6254
-207.001
9.62342
50.7104
50.5351
50.6546
48.0866
-9.10412
10.6634
-198.089
5.87855
47.2232
48.1533
47.2118
43.483
-15.0245
21.1694
-182.503
4.18957
42.6564
43.4746
42.5911
39.7195
-28.9098
37.2989
-169.306
3.32415
39.1776
39.6571
39.055
37.324
-46.4024
55.5513
-160.08
2.63905
36.9954
37.1916
36.8082
35.6695
-65.0156
74.2857
-152.984
2.01897
35.3827
35.4949
35.1677
33.9382
-83.7423
92.9525
-145.577
1.76402
33.5482
33.7741
33.3613
31.4089
-102.368
111.68
-135.925
2.36073
30.7703
31.3536
30.7308
27.5001
-121.501
131.746
-123.075
4.1966
26.5697
27.7241
26.854
22.8873
-142.982
154.887
-109.983
6.8932
22.1372
23.4501
22.7234
84.7967
-166.891
178.21
-104.134
8.01856
767.888
-491.348
52.2663
-184.514
-154.101
-187.46
-157.982
840.967
-486.329
51.8595
907.539
-479.488
50.318
969.439
-469.981
48.7056
1027.53
-456.873
47.2537
1082.05
-440.241
45.964
1132.81
-420.641
44.8165
1179.46
-399.195
43.7929
1221.56
-378.039
43.0463
1259.69
-360.321
42.0662
-349.858
44.9945
98.4586
-76.495
63.1286
4.31965
-117.714
109.613
-64.2699
-168.883
124.775
-99.1043
-233.035
145.583
-22.5637
-358.806
159.947
46.8435
61.4126
48.7033
61.922
-44.6929
-14.6561
-37.0612
93.183
-22.76
-115.138
22.1735
149.69
25.3986
-28.1517
-163.009
16.0914
-201.13
-832.567
66.8746
195.356
205.492
194.523
203.237
34.4861
57.0865
27.1258
49.7159
-221.247
-860.539
44.425
210.735
209.37
209.281
207.042
-210.571
-842.356
30.6538
203.828
198.685
202.245
196.373
-175.911
-808.302
24.1411
190.873
185.907
189.259
183.588
-127.791
-774.837
21.5002
179.199
175.509
177.509
173.11
-73.5692
-746.223
20.5329
170.366
167.575
168.552
165.107
-16.3447
-720.819
20.6319
163.156
160.489
161.298
158.111
44.0868
-695.791
22.3325
155.795
152.607
154.125
150.574
109.953
-670.434
26.6517
147.083
143.054
145.96
141.852
184.266
-646.785
33.7306
136.834
132.555
136.759
132.64
265.132
-630.256
41.658
127.541
125.361
128.63
126.24
344.136
-624.806
46.0202
123.782
125.314
124.945
125.784
422.491
-616.873
47.2065
496.068
-607.253
47.3738
566.203
-596.369
46.7605
633.272
-583.075
46.0259
697.364
-566.249
45.2706
758.334
-545.767
44.5225
815.786
-521.99
43.8267
869.159
-495.894
43.2054
917.855
-469.726
42.8319
962.617
-447.447
42.2226
-433.297
46.1929
-379.971
-151.011
78.4953
-391.27
-199.105
92.8038
-404.984
-266.484
111.408
-405.968
-357.969
126.011
-403.675
-487.738
126.741
-418.53
-642.902
107.849
128.328
148.521
127.137
146.055
-451.234
-772.662
78.8504
175.33
190.548
173.345
187.403
-485.141
-851.323
52.7738
-501.846
-878.554
34.8343
-495.259
-873.323
24.4656
-469.444
-853.872
19.8476
-431.249
-831.653
18.7207
-385.832
-810.978
19.4396
-335.515
-792.269
21.2159
-280.449
-774.889
24.0928
-219.808
-759.313
28.2759
-153.006
-747.026
33.4765
-82.0814
-739.77
38.6326
-11.22
-737.566
41.9492
60.1091
-732.05
43.8929
131.62
-723.481
44.7453
202.713
-712.409
44.9566
272.943
-698.21
44.8985
341.824
-679.813
44.6611
408.783
-657.095
44.328
473.106
-630.355
43.9673
533.975
-600.49
43.6133
590.722
-570.047
43.4431
644.471
-544.417
43.1132
-527.026
48.2156
-786.862
-236.188
80.123
-774.15
-301.732
90.0002
-763.094
-372.925
95.5045
-750.45
-471.769
101.283
-744.741
-588.988
95.6696
-757.141
-709.035
78.6314
-782.508
-804.724
57.5078
-808.335
-864.548
39.1455
-821.294
-891.447
25.9481
-817.319
-895.819
18.6131
-798.401
-888.551
15.8578
-768.544
-877.47
16.0657
-731.02
-866.394
17.9982
-687.52
-856.572
20.8981
-638.462
-848.422
24.549
-583.89
-842.607
28.7765
-524.25
-839.812
33.1937
-461.058
-840.1
37.1887
-396.45
-842.139
40.017
-329.364
-841.144
42.0524
-259.666
-836.478
43.3223
-187.846
-828.299
44.0728
-114.554
-816.006
44.4888
-40.5452
-798.469
44.6153
33.3117
-775.547
44.5456
105.994
-747.459
44.3437
176.413
-715.052
44.0437
244.008
-681.545
43.8054
310.285
-654.398
43.6407
-634.311
50.0153
-1150.61
-330.445
75.6908
-1126.24
-404.606
78.5559
-1106.51
-467.268
74.75
-1093.69
-558.752
74.3128
-1092.92
-656.619
66.9976
-1106.85
-748.2
53.2002
-1129.4
-820.466
38.364
-1150.52
-868.979
25.6285
-1162.24
-896.282
16.6415
-1161.87
-908.197
12.0945
-1150.09
-911.29
11.0621
-1128.97
-910.908
12.4303
-1100.41
-910.091
15.2488
-1065.48
-910.29
18.8952
-1024.62
-912.184
22.9909
-978.135
-916.263
27.2373
-926.54
-922.624
31.2792
-870.679
-930.677
34.7753
-811.349
-938.883
37.4689
-747.598
-944.433
39.5787
-679.097
-946.081
41.1223
-606.073
-943.542
42.2181
-529.073
-935.948
42.9218
-448.855
-921.945
43.2233
-366.383
-901.252
43.181
-282.888
-873.879
42.8534
-199.715
-840.562
42.2603
-117.138
-805.68
41.5156
-34.3735
-778.639
41.4773
-756.659
49.1585
-1481.52
-412.01
56.0648
-1455.75
-489.202
58.8608
-1436.36
-536.79
50.2737
-1429.18
-612.978
47.2276
-1435.87
-690.324
40.5504
-1453.58
-760.527
30.1522
-1475.99
-817.671
19.6826
-1496.46
-859.626
11.1725
-1510.4
-887.972
5.6941
-1515.88
-906.058
3.42463
-1512.74
-918.094
3.76462
-1501.83
-927.659
5.94925
-1483.99
-937.057
9.24667
-1459.75
-947.547
13.132
-1429.33
-959.723
17.2241
-1392.88
-973.856
21.2362
-1350.58
-989.724
24.8835
-1302.61
-1006.56
27.9877
-1248.93
-1022.99
30.4909
-1188.69
-1037.18
32.5412
-1121.38
-1047.53
34.1635
-1046.89
-1053.4
35.3727
-965.448
-1053.51
36.1016
-877.56
-1046.16
36.3067
-784.094
-1030.73
35.967
-686.408
-1006.71
35.095
-585.921
-974.669
33.5887
-482.8
-940.492
31.727
-379.93
-914.136
32.7181
-891.234
43.4185
-1785.04
-464.566
25.2016
-1767.21
-539.619
32.6248
-1754.29
-571.14
21.5899
-1754.4
-630.949
18.2986
-1767.2
-690.614
13.2731
-1788.16
-745.456
5.998
-1812.39
-792.417
-0.958399
-1835.58
-830.084
-6.30901
-1854.7
-859.381
-9.41448
-1867.95
-882.485
-10.2526
-1874.71
-901.977
-9.25095
-1875.03
-920.245
-6.97576
-1869.05
-938.939
-3.96813
-1856.82
-959.006
-0.627819
-1838.28
-980.868
2.73306
-1813.23
-1004.66
5.87205
-1781.38
-1030.08
8.61586
-1742.34
-1056.4
10.8862
-1695.49
-1082.44
12.6876
-1639.83
-1106.89
14.1149
-1574.54
-1127.99
15.1974
-1499.01
-1144.77
15.8654
-1412.89
-1155.64
16.0192
-1316.13
-1158.49
15.5661
-1209.15
-1152.02
14.2998
-1093.08
-1134.86
12.0644
-969.078
-1107.23
8.59303
-837.872
-1076.46
4.91037
-707.269
-1051.75
7.21919
-1028.87
20.9442
-2061.36
-477.516
-17.5176
-2055.65
-544.69
-0.619805
-2051.41
-563.043
-12.1465
-2059.6
-608.48
-14.0131
-2078.66
-654.146
-17.2025
-2104.13
-697.6
-22.2598
-2132.55
-736.917
-27.0182
-2160.78
-771.159
-30.6581
-2186.48
-800.829
-32.8052
-2208.12
-827.292
-33.4891
-2224.79
-852.16
-33.0369
-2236.08
-876.957
-31.8666
-2241.72
-902.791
-30.3538
-2241.42
-930.352
-28.7821
-2234.8
-959.939
-27.3841
-2221.32
-991.652
-26.3291
-2200.33
-1025.24
-25.6907
-2171
-1060.12
-25.4845
-2132.26
-1095.38
-25.6912
-2082.73
-1130.06
-26.2717
-2021.04
-1162.42
-27.2029
-1945.84
-1191.34
-28.5754
-1855.88
-1215.07
-30.4875
-1750.13
-1231.13
-33.0807
-1628.06
-1237.38
-36.6826
-1489.93
-1231.14
-41.806
-1335.92
-1212.24
-48.8596
-1167.94
-1188.69
-55.4835
-999.924
-1166.58
-52.8065
-1142.14
-38.4788
-2310.5
-443.965
-68.7683
-2318.38
-497.022
-39.771
-2323.88
-505.669
-51.6192
-2341
-538.936
-52.0985
-2367.01
-573.297
-54.5758
-2398.16
-607.562
-58.7391
-2431.93
-640.184
-62.9107
-2465.96
-670.585
-66.5313
-2498.36
-699.015
-69.3906
-2527.75
-726.289
-71.5566
-2553.19
-753.367
-73.2521
-2574.05
-781.178
-74.7783
-2589.82
-810.467
-76.3725
-2600.02
-841.721
-78.2333
-2604.07
-875.188
-80.5065
-2601.24
-910.998
-83.2954
-2590.65
-949.029
-86.628
-2571.19
-988.899
-90.5254
-2541.44
-1030.02
-94.9888
-2499.62
-1071.75
-100.033
-2443.72
-1112.62
-105.623
-2371.5
-1151.64
-111.867
-2280.47
-1187.18
-118.878
-2168.06
-1216.72
-126.778
-2032.09
-1237.35
-135.942
-1870.9
-1245.01
-147.218
-1682.67
-1239.3
-160.938
-1470.36
-1227.6
-172.907
-1254.58
-1209.38
-172.474
-1179.74
-162.144
-2532.07
-356.315
-118.718
-2554.53
-392.351
-82.1929
-2570.21
-392.989
-96.6702
-2596.07
-415.635
-97.0113
-2628.71
-439.85
-100.473
-2665.54
-465.234
-105.315
-2704.68
-490.454
-110.552
-2744.2
-515.176
-115.905
-2782.57
-539.457
-121.216
-2818.54
-563.732
-126.557
-2851.22
-588.551
-132.048
-2879.93
-614.426
-137.899
-2904.08
-641.871
-144.246
-2923.12
-671.199
-151.256
-2936.41
-702.641
-159.028
-2943.17
-736.362
-167.656
-2942.43
-772.386
-177.191
-2932.91
-810.521
-187.723
-2912.99
-850.472
-199.324
-2880.61
-891.943
-212.097
-2833.22
-933.901
-226.03
-2767.74
-975.687
-241.361
-2680.43
-1016.2
-258.239
-2566.91
-1053.49
-276.693
-2422.49
-1084.42
-297.253
-2241.99
-1104.21
-321.092
-2020.22
-1112.71
-347.869
-1760.01
-1116.49
-370.642
-1485.52
-1105.5
-377.467
-1069.58
-378.032
-2708.06
-207.627
-167.053
-2748.61
-226.287
-125.538
-2774.36
-223.797
-143.144
-2807.81
-236.127
-145.67
-2846.07
-249.366
-151.974
-2887.9
-264.108
-159.258
-2931.85
-279.226
-167.414
-2976.28
-294.573
-176.377
-3019.88
-310.071
-185.974
-3061.56
-325.898
-196.26
-3100.48
-342.331
-207.288
-3135.99
-359.593
-219.196
-3167.57
-377.969
-232.121
-3194.65
-397.618
-246.237
-3216.63
-418.702
-261.679
-3232.75
-441.383
-278.579
-3242.02
-465.765
-297.085
-3243.15
-491.795
-317.37
-3234.47
-519.369
-339.596
-3213.82
-548.439
-364.01
-3178.34
-578.521
-390.749
-3124.29
-609.35
-420.314
-3046.93
-640.53
-452.968
-2940.48
-671.104
-488.758
-2797.26
-698.853
-528.632
-2606.82
-720.058
-574.173
-2359.5
-735.526
-623.779
-2056.89
-750.67
-667.107
-1717.83
-751.279
-691.79
-719.171
-713.165
-2799.13
-212.809
-2853.44
-172.034
-2886.84
-190.245
-2926.26
-196.533
-2968.61
-206.952
-3014.29
-218.531
-3062.13
-231.599
-3110.78
-246.169
-3159.01
-262.047
-3205.79
-279.256
-3250.32
-297.841
-3292.02
-317.858
-3330.39
-339.49
-3364.91
-362.947
-3395.02
-388.427
-3420.06
-416.189
-3439.12
-446.557
-3450.98
-479.818
-3454.08
-516.19
-3446.32
-556.151
-3424.73
-600.1
-3385.24
-648.854
-3322.82
-702.974
-3231.12
-762.809
-3099.92
-829.965
-2913.32
-906.367
-2658.7
-989.464
-2339.94
-1068.3
-1959.61
-1130.63
-1186.33
545.146
-17.4359
38.7207
128.742
-32.9456
121.468
129.119
132.495
132.498
-33.2475
117.649
-1.43523
45.7818
-18.1179
-23.2384
1.71228
21.3291
4.72683
4.44557
4.48325
4.65894
-23.9319
30.6992
-6.89483
-30.0601
30.2614
-46.5646
6.06912
-4.12684
-5.85821
50.4913
0.201202
-58.9681
61.2356
-2.76234
0.29717
0.788264
-67.8271
70.1393
-2.42115
-0.678943
3.55407
-77.8369
80.6868
-2.42626
-3.97661
5.94093
-90.0011
93.3115
-2.41033
-6.84089
6.87214
-103.53
106.913
-2.28491
-7.97036
4.31296
-116.318
118.976
-1.84761
-5.12416
-2.15434
-124.488
125.311
-0.967702
2.29858
-124.07
-26.4894
483.086
-3.25511
33.8646
-122.383
-121.148
-119.615
1851.59
-53.0512
144.29
-475.989
-464.329
-459.699
-449.677
1861.92
-63.6489
138.11
1879.01
-70.668
130.629
1900.22
-74.1047
123.943
1922.97
-74.613
118.257
1945.41
-73.0609
113.087
1966.48
-70.2582
108.078
1985.87
-66.9459
103.001
2003.98
-63.8619
97.9093
2022.5
-62.2531
92.5262
-60.39
87.7964
546.87
-37.8318
44.045
129.746
-72.1188
128.943
130.458
132.833
133.327
-31.6812
3.8808
121.311
-7.95762
44.2511
-15.7625
-4.96411
-25.9386
22.8009
5.09155
18.7951
-30.2168
-6.96358
23.4535
-27.3455
7.19278
33.9368
-42.3048
-1.81573
15.7123
-18.9636
2.5475
44.8399
-1.34479
11.3453
-51.8721
54.0588
-14.1917
2.01048
-0.471825
9.87946
-60.4448
62.6026
-12.4252
0.864386
1.42423
9.67577
-69.4165
71.8362
-12.0846
-1.43142
3.2476
9.50525
-79.5454
82.2426
-11.8142
-3.63486
4.09737
8.93807
-90.4944
93.2265
-11.0758
-4.69204
2.97762
7.38364
-100.959
103.265
-9.20241
-3.4671
-0.805698
4.45671
-108.797
110.059
-5.76586
0.853657
-111.121
-19.9512
9.4743
436.217
-17.4693
25.2734
-107.76
-108.927
-105.78
1691.83
-129.76
125.651
-433.097
-407.819
-420.751
-398.243
1723.98
-143.663
123.062
1757.93
-152.847
117.496
1792.95
-156.752
112.083
1827.55
-156.017
107.429
1860.51
-151.953
103.326
1890.98
-145.783
99.4935
1918.57
-138.675
95.6963
1943.71
-132.036
91.9228
1967.41
-127.632
87.8884
-126.082
84.6392
546.329
-60.9152
55.2841
129.721
-114.548
144.03
127.578
132.568
130.62
13.1028
-30.0841
122.84
-18.9792
42.9054
-12.8304
-3.29463
5.56832
71.8701
25.6825
25.9
26.8362
27.0572
-114.043
-5.72211
-2.24287
-4.42197
-14.3384
-12.2366
-13.7469
-7.05766
-5.43401
-6.18275
6.92309
4.62315
7.15309
-4.14197
14.2569
-7.68198
7.38689
-14.4218
4.60681
-27.8634
35.8208
-5.7796
-37.8534
6.79163
28.8867
-3.09264
27.3485
-32.967
3.91943
34.5573
-29.7505
-2.02884
22.2515
-39.7209
41.533
-24.721
2.69507
-1.11561
19.9351
-47.125
49.0427
-22.3105
1.57889
0.154563
19.1263
-54.9563
56.9885
-21.3514
0.0424244
1.34368
18.459
-63.2648
65.4049
-20.5398
-1.4012
1.89299
17.1867
-71.8514
73.9679
-19.1029
-2.09338
1.17229
14.5389
-80.0283
81.8997
-16.2758
-1.30975
-1.3936
10.1116
-86.8398
88.2074
-11.6933
1.60719
-90.473
-17.8817
28.316
358.427
-40.7602
22.9423
-86.2487
-89.1774
-85.1715
1430.21
-234.308
112.047
-359.87
-328.932
-353.25
-325.179
1487.03
-243.856
109.766
1539.51
-248.724
105.419
1588.74
-248.801
101.175
1634.97
-244.392
97.4682
1678.04
-236.513
94.2208
1717.58
-226.255
91.2818
1753.31
-214.845
88.4965
1785.46
-204.003
85.8744
1814.73
-195.949
83.1181
-192.171
81.7395
530.943
-79.0574
72.1094
481.334
-145.107
167.614
103.465
-126.208
237.901
24.1846
17.8752
27.5169
22.1097
94.238
109.817
101.109
4.48559
-44.1959
94.451
-13.8999
62.7069
-16.3451
-5.73641
-22.0171
21.7887
2.63092
19.6861
-6.38333
-2.62476
-5.46495
5.33335
0.383915
8.79
-6.82618
7.81983
-7.17335
7.25071
-8.69623
7.63331
49.1498
-20.887
-8.07746
19.4412
-49.04
9.42218
-4.23849
42.6168
-18.2668
5.13338
18.6398
-43.872
-2.78865
35.9915
-21.0371
22.1158
-37.7622
3.49304
-2.06038
31.3788
-25.9123
27.2934
-33.331
2.64085
-1.40952
28.8281
-31.6572
33.1527
-30.7652
1.8594
-0.65
27.4705
-37.7332
39.2715
-29.2935
0.943725
-0.0227125
26.2468
-43.942
45.4986
-27.9506
0.174824
0.11304
24.4216
-50.178
51.7125
-26.0408
-0.026177
-0.656167
21.356
-56.2665
57.7491
-22.9999
0.816749
-2.57579
16.9087
-62.1668
63.6124
-18.7709
2.9938
-67.0382
-17.1038
56.2775
270.245
-72.5822
22.3244
-62.8728
-66.6074
-62.6378
1126.45
-356.103
99.2988
-275.837
-245.426
-274.87
-246.895
1200.08
-355.873
96.8789
1265.92
-352.823
93.8417
1326.05
-346.927
90.9633
1381.64
-337.615
88.3657
1433.04
-325.24
86.0694
1480.16
-310.495
84.0505
1522.73
-294.446
82.2355
1560.76
-278.907
80.6825
1594.53
-266.423
79.1126
-259.212
79.6093
464.847
-75.3973
88.965
368.89
-138.308
192
71.8655
-139.7
242.979
54.9608
79.9769
63.3883
19.445
63.3165
-28.0778
57.4794
18.4844
-50.4165
50.9684
-34.6618
71.0126
-55.2533
11.0906
-15.014
-11.9962
11.9789
18.0746
-14.1393
25.9312
-14.352
-12.0185
12.3255
16.8027
-28.6868
42.5844
-33.003
-44.9699
39.5468
-181.959
44.9554
44.9912
42.9233
45.02
49.5853
-32.6812
-18.1862
28.1777
-199.412
25.4713
49.0693
49.3568
48.7867
46.764
-11.33
-26.5727
28.138
-190.295
16.2868
45.7414
46.1817
45.1721
42.0907
-8.31425
-32.0489
37.819
-175.069
12.2563
41.1631
41.567
40.6533
38.2985
-6.79224
-44.801
52.5978
-162.06
10.1811
37.6416
37.8271
37.1792
35.7838
-5.57142
-60.8404
69.3654
-152.724
8.50341
35.3441
35.3428
34.9102
34.0604
-4.42674
-77.9516
86.5731
-145.669
6.86638
33.7016
33.6413
33.2866
32.4392
-3.84891
-95.1806
103.847
-138.833
5.90483
32.0407
32.0526
31.6596
30.4076
-4.63084
-112.6
121.549
-130.865
6.59902
29.89
30.0978
29.6044
27.6848
-7.46116
-130.854
140.791
-121.405
9.85168
27.0092
27.5378
26.9145
24.541
-11.9501
-151.532
163.202
-112.146
15.3677
23.9224
24.6117
24.0444
90.2905
-174.976
-14.7249
186.752
-106.59
19.2671
814.439
-474.866
85.6913
-193.863
-166.156
-197.587
-171.444
892.283
-466.777
84.9853
963.616
-457.415
83.6297
1029.65
-446.387
82.1596
1091.19
-432.649
80.7281
1148.47
-416.093
79.4503
1201.27
-397.076
78.3734
1249.2
-376.474
77.4937
1292.03
-356.129
76.9316
1329.74
-338.973
76.4636
-327.992
78.8313
225.34
-58.5989
99.2618
116.75
-113.395
193.633
38.9385
-168.949
231.899
0.0708689
-230.96
266.18
33.8785
36.7161
38.2456
40.6478
1.4729
-341.122
282.922
51.2512
62.5525
54.146
64.0116
-19.3793
12.4717
-8.15322
91.1748
-40.3639
2.3137
-109.165
57.5729
145.128
-31.7935
0.409041
-3.00228
-155.019
44.349
-98.3048
-777.855
128.063
187.948
195.203
183.385
189.522
9.92498
31.2657
-1.37505
19.5502
-118.617
-806.541
83.0273
201.729
198.694
195.593
192.674
-109.96
-790.836
56.9505
195.085
188.635
189.311
183.144
-78.7413
-758.99
44.2994
182.661
176.394
177.454
171.436
-34.4163
-726.814
38.7151
171.266
166.236
166.504
161.613
16.2556
-698.888
36.2591
162.461
158.403
157.959
154.051
70.1796
-674.2
35.6087
155.335
151.672
151.09
147.513
127.592
-650.528
37.337
148.47
144.615
144.483
140.784
190.648
-627.754
42.5922
140.997
136.841
137.451
133.626
261.685
-608.102
51.8069
133.054
129.097
130.253
126.772
339.09
-595.184
62.8821
126.352
123.801
124.399
122.176
416.004
-589.427
70.3387
122.944
123.149
121.235
121.006
494.593
-580.077
73.9382
569.219
-569.14
75.1978
640.469
-557.215
75.3579
708.443
-543.487
75.1593
773.119
-526.916
74.8218
834.249
-507.306
74.4966
891.34
-484.851
74.2869
943.756
-460.298
74.2498
991.022
-435.57
74.5667
1032.98
-414.22
75.1543
-399.687
79.4442
-223.474
-122.805
145.493
-244.703
-174.755
175.65
-268.687
-241.622
208.332
-276.59
-326.803
229.953
-276.55
-444.391
230.203
-290.692
-588.626
198.469
120.751
138.392
118.045
135.227
-321.469
-712.065
145.259
165.375
178.552
159.826
172.943
-353.479
-789.384
96.5799
-370.394
-816.829
62.3002
-366.091
-812.284
41.8447
-343.621
-793.361
31.9994
-308.985
-771.13
28.6832
-266.998
-750.066
28.915
-220.081
-730.879
31.2308
-168.426
-713.244
35.3405
-111.2
-697.841
41.2805
-48.1257
-686.284
48.7242
18.8845
-679.71
56.3055
86.6975
-676.866
61.7303
155.822
-670.539
65.3639
225.346
-661.303
67.4734
294.365
-649.929
68.6847
362.309
-635.993
69.4436
428.6
-618.561
69.9496
492.583
-597.472
70.3795
553.463
-572.859
70.8658
610.346
-545.405
71.5101
662.589
-517.274
72.5539
709.931
-492.945
74.2392
-475.231
80.6227
-607.052
-197.7
149.963
-596.101
-258.375
162.838
-591.746
-327.385
177.2
-583.105
-418.829
184.976
-578.211
-527.274
173.938
-589.698
-640.592
142.292
-613.529
-733.11
102.558
-638.846
-791.823
67.1099
-653.347
-817.662
41.501
-652.316
-820.739
26.2605
-637.137
-811.907
19.4751
-611.292
-798.939
18.3134
-577.858
-785.72
20.5059
-538.58
-773.695
24.6986
-493.915
-763.369
30.2215
-443.878
-755.541
36.6122
-389.04
-751.046
43.2751
-330.901
-749.826
49.3305
-271.268
-750.196
53.8715
-209.189
-747.773
57.3343
-144.759
-742.126
59.7858
-78.5969
-733.552
61.5454
-11.3994
-721.603
62.8603
56.0154
-705.318
63.8688
122.715
-684.523
64.7472
187.633
-659.305
65.6449
249.64
-630.338
66.6968
308.03
-600.307
68.2247
362.228
-574.815
71.196
-554.171
80.0509
-937.319
-278.038
136.26
-911.799
-342.873
137.606
-896.29
-403.757
135.904
-884.729
-488.749
133.024
-882.526
-580.164
117.983
-894.407
-666.866
91.5545
-915.635
-735.999
62.6183
-937.312
-781.839
37.4654
-951.46
-805.908
19.2
-954.641
-814.064
8.79073
-947.092
-813.112
4.94917
-930.554
-808.443
5.66344
-906.845
-803.133
9.23381
-877.104
-798.753
14.4797
-841.816
-796.04
20.6032
-801.295
-795.606
26.9766
-756.187
-797.722
33.0203
-707.432
-801.846
38.2042
-655.848
-806.405
42.2374
-600.611
-808.788
45.4601
-541.5
-808
47.9309
-478.799
-803.858
49.8116
-413.049
-795.725
51.2343
-345.022
-782.501
52.2797
-275.726
-763.892
53.1022
-206.445
-739.82
53.8855
-138.557
-710.952
54.8055
-72.8697
-680.885
56.3577
-11.4267
-655.825
61.1163
-633.051
73.2899
-1222.94
-347.685
98.6116
-1194.54
-410.672
98.2611
-1177.3
-457.085
86.6511
-1169.64
-527.811
79.0144
-1173.93
-600.064
65.047
-1189.72
-665.536
44.7947
-1211.86
-717.958
23.8673
-1233.89
-754.751
6.18882
-1250.83
-777.088
-6.08629
-1260.23
-788.589
-12.5084
-1261.64
-793.707
-14.0395
-1255.78
-796.004
-12.1118
-1243.49
-797.904
-8.01178
-1225.4
-800.724
-2.72573
-1201.86
-805.126
3.00034
-1173.12
-811.484
8.58042
-1139.59
-819.756
13.5639
-1101.67
-829.287
17.6628
-1059.52
-838.779
20.8375
-1012.44
-846.588
23.3335
-959.991
-851.465
25.2046
-902.139
-852.889
26.5213
-839.159
-849.991
27.3203
-771.62
-841.469
27.6353
-700.485
-826.791
27.5913
-627.183
-805.571
27.3898
-553.283
-778.53
27.2094
-480.136
-750.246
28.1041
-412.554
-725.904
35.5148
-702.247
52.834
-1467.22
-391.542
42.9903
-1445.97
-447.212
47.8553
-1434.29
-478.158
31.2765
-1434.03
-532.87
23.4935
-1445.64
-587.478
12.6056
-1466.33
-636.41
-2.28805
-1491.8
-676.438
-16.9796
-1517.65
-706.262
-28.9503
-1540.42
-726.79
-36.9148
-1558.08
-740.345
-40.7622
-1569.93
-749.755
-41.2113
-1575.97
-757.454
-39.2888
-1576.5
-765.161
-35.9476
-1571.77
-773.876
-31.9605
-1561.91
-784.1
-27.9294
-1546.98
-796.035
-24.3148
-1527.03
-809.513
-21.4054
-1502.04
-823.919
-19.3397
-1471.72
-838.242
-18.0787
-1435.33
-851.349
-17.4708
-1392.23
-861.918
-17.4629
-1341.99
-869.261
-18.0573
-1284.47
-872.31
-19.2724
-1219.82
-869.56
-21.1015
-1148.79
-860.161
-23.4958
-1072.84
-843.293
-26.2822
-993.705
-819.778
-29.2267
-913.954
-794.686
-30.0242
-840.852
-771.342
-19.9178
-747.662
2.13433
-1669.57
-399.594
-27.1537
-1662.94
-444.097
-10.4687
-1661.6
-462.492
-28.849
-1671.17
-502.622
-34.2652
-1691.47
-542.295
-41.7789
-1719.13
-578.425
-52.471
-1750.81
-608.952
-62.8497
-1783.32
-633.178
-71.3101
-1814.16
-651.705
-77.1093
-1841.63
-666.054
-80.3021
-1864.88
-678.043
-81.4209
-1883.61
-689.259
-81.1889
-1897.79
-700.871
-80.2705
-1907.46
-713.557
-79.2356
-1912.56
-727.672
-78.5183
-1912.98
-743.341
-78.4418
-1908.51
-760.36
-79.1864
-1898.79
-778.211
-80.825
-1883.22
-796.15
-83.3136
-1860.91
-813.367
-86.5889
-1830.92
-828.602
-90.587
-1792.4
-841.106
-95.368
-1744.65
-849.71
-100.983
-1687.25
-852.792
-107.412
-1620.46
-849.167
-114.641
-1545.46
-837.574
-122.627
-1464.1
-818.858
-130.984
-1380.38
-797.88
-135.46
-1303.46
-775.884
-124.463
-753.464
-100.485
-1837.97
-367.83
-108.15
-1848.63
-399.971
-73.3944
-1860.79
-408.949
-92.6996
-1882.84
-437.068
-95.1553
-1913.96
-464.819
-100.625
-1951.03
-490.998
-109.017
-1991.59
-513.994
-117.41
-2033.24
-533.395
-124.835
-2074.05
-549.593
-130.851
-2112.65
-563.531
-135.575
-2148.21
-576.372
-139.367
-2180.35
-589.114
-142.716
-2208.91
-602.506
-146.058
-2233.81
-616.963
-149.798
-2254.89
-632.73
-154.243
-2271.93
-649.87
-159.638
-2284.57
-668.19
-166.112
-2292.26
-687.309
-173.736
-2294.23
-706.74
-182.504
-2289.42
-725.917
-192.436
-2276.62
-743.73
-203.485
-2254.58
-759.444
-215.799
-2222.03
-771.966
-229.432
-2177.9
-779.727
-244.261
-2121.72
-781.254
-260.3
-2054.03
-774.875
-277.732
-1976.46
-761.405
-295.766
-1893.91
-745.034
-307.637
-1816.53
-724.711
-300.134
-706.206
-279.819
-1987.17
-294.45
-194.285
-2014.76
-317.931
-136.835
-2043.08
-318.467
-158.576
-2080.82
-335.966
-159.989
-2125.65
-354.331
-165.924
-2175.25
-372.329
-174.447
-2227.74
-388.899
-183.427
-2281.34
-403.656
-192.406
-2334.53
-416.878
-201.073
-2386.22
-429.076
-209.564
-2435.71
-440.959
-218.096
-2482.65
-453.113
-226.99
-2526.86
-465.966
-236.533
-2568.22
-479.734
-247.051
-2606.54
-494.574
-258.788
-2641.55
-510.509
-271.953
-2672.87
-527.395
-286.672
-2699.87
-545.012
-303.074
-2721.75
-563.087
-321.237
-2737.38
-581.268
-341.313
-2745.44
-598.66
-363.308
-2744.4
-614.653
-387.51
-2732.58
-628.405
-413.978
-2708.3
-638.629
-442.446
-2670.26
-643.735
-473.129
-2617.99
-641.741
-506.606
-2552.42
-633.467
-541.069
-2478.19
-622.219
-566.755
-2403.83
-604.664
-570.714
-593.859
-562.765
-2126.81
-176.005
-280.398
-2177.6
-190.561
-202.396
-2226.3
-185.293
-227.394
-2282.89
-194.088
-230.619
-2344.74
-203.762
-240.561
-2410.65
-213.775
-252.075
-2479
-223.555
-264.819
-2548.39
-232.701
-278.454
-2617.61
-241.34
-292.764
-2685.77
-249.654
-307.878
-2752.29
-257.989
-323.946
-2816.88
-266.624
-341.173
-2879.38
-275.766
-359.799
-2939.65
-285.509
-380.133
-2997.48
-295.96
-402.391
-3052.64
-307.143
-426.734
-3104.75
-318.978
-453.378
-3153.28
-331.343
-482.578
-3197.48
-344.123
-514.505
-3236.31
-357.168
-549.498
-3268.41
-369.944
-587.657
-3292.17
-382.098
-629.457
-3305.73
-393.16
-675.044
-3306.99
-402.337
-724.186
-3293.6
-408.377
-777.652
-3263.5
-409.611
-836.384
-3216.66
-406.592
-896.922
-3156.14
-401.265
-947.345
-3083.02
-390.408
-977.784
-384.591
-994.066
-2235.86
-364.856
-2318.89
-279.832
-2387.38
-307.051
-2462.64
-315.331
-2541.72
-331.73
-2624.5
-349.801
-2709.84
-370.233
-2796.54
-392.621
-2883.55
-416.782
-2969.97
-442.8
-3055.23
-470.776
-3139
-500.814
-3221.1
-533.2
-3301.3
-568.272
-3379.43
-606.263
-3455.35
-647.43
-3528.77
-692.174
-3599.2
-740.843
-3665.99
-793.683
-3728.24
-851.286
-3784.65
-913.892
-3833.61
-982.3
-3873.13
-1056.95
-3900.64
-1137.96
-3912.26
-1226.94
-3903.04
-1325.19
-3870.2
-1428.51
-3812.88
-1526.13
-3723.25
-1609.89
-1669.19
552.175
-21.7827
54.8066
136.943
-44.2071
161.757
136.768
141.365
141.041
-54.9532
134.543
-4.54152
61.8947
-25.5558
-32.2691
31.4094
0.228844
26.1847
5.77154
6.72399
0.947936
-13.4249
-43.8578
21.5096
-7.76521
-17.1887
47.3789
1.53497
-55.074
-3.66839
56.4581
0.765181
-3.18455
-59.3529
60.3741
-2.37791
4.5454
-0.545533
-64.2084
65.7392
-2.259
1.27457
4.09139
-70.9666
72.8955
-2.28892
-3.73002
8.08279
-79.114
81.296
-2.26548
-7.99929
9.72888
-87.9829
90.2094
-2.15362
-9.80276
6.61777
-96.6984
98.7345
-1.87295
-6.78292
-2.22405
-104.108
105.552
-1.30573
2.08432
-108.045
-37.315
431.657
-6.74925
37.2136
-107.134
-105.166
-104.473
1754.98
-63.816
149.485
-435.054
-426.995
-420.217
-414.171
1806.93
-67.7062
153.871
1853.47
-70.1605
154.278
1895.38
-70.6956
152.76
1932.88
-69.4766
150.252
1965.99
-66.9719
146.938
1994.83