/*--------------------------------*- C++ -*----------------------------------*\
  =========                 |
  \\      /  F ield         | OpenFOAM: The Open Source CFD Toolbox
   \\    /   O peration     | Website:  https://openfoam.org
    \\  /    A nd           | Version:  10
     \\/     M anipulation  |
\*---------------------------------------------------------------------------*/
FoamFile
{
    format      ascii;
    class       volVectorField;
    location    "100";
    object      U;
}
// * * * * * * * * * * * * * * * * * * * * * * * * * * * * * * * * * * * * * //

dimensions      [0 1 -1 0 0 0 0];

internalField   nonuniform List<vector> 
27507
(
(14.0207 -0.142345 0.194524)
(13.7844 -0.247673 0.645318)
(12.2971 0.0167128 0.66073)
(5.88224 0.396264 0.770421)
(7.09594 1.52571 -1.17866)
(18.6833 -0.562362 -0.373717)
(26.0042 -0.447813 -0.0525986)
(30.5994 -0.380373 -0.0630934)
(35.9706 -0.393678 -0.194749)
(42.6938 -0.398248 -0.299069)
(50.1992 -0.385636 -0.33495)
(56.6549 -0.254706 -0.184662)
(58.5886 -0.0128708 0.148991)
(54.0478 0.0998221 0.667364)
(49.8137 -0.299031 1.03408)
(48.7735 -0.498115 0.909782)
(48.3922 -0.622537 0.809564)
(48.384 -0.688603 0.736095)
(48.5796 -0.711498 0.680923)
(48.8855 -0.705698 0.635491)
(49.2348 -0.682503 0.595183)
(49.5875 -0.651582 0.557456)
(49.9456 -0.622129 0.522282)
(50.2682 -0.606423 0.48635)
(50.858 -0.6033 0.464759)
(14.0652 -0.448228 0.212827)
(13.8287 -0.831383 0.66861)
(12.5611 -0.14523 0.629588)
(7.873 2.44783 0.698169)
(10.3539 -5.78045 0.352261)
(16.9484 -5.37287 0.0229937)
(21.8951 -4.09089 0.0195474)
(26.3031 -3.56355 -0.0115719)
(31.0375 -3.52313 -0.096756)
(36.4955 -3.4787 -0.175583)
(42.3256 -3.27479 -0.206836)
(47.5041 -2.3868 -0.139875)
(50.2927 -0.776586 0.0587958)
(48.0378 -0.305973 0.52289)
(44.7314 -1.31381 0.904481)
(44.6022 -1.74572 0.812367)
(44.842 -2.02911 0.730575)
(45.2871 -2.17881 0.669822)
(45.8392 -2.22193 0.623798)
(46.4415 -2.19203 0.586157)
(47.0477 -2.11707 0.553264)
(47.6266 -2.02158 0.522957)
(48.1815 -1.93056 0.49529)
(48.6672 -1.87542 0.467417)
(49.3971 -1.86695 0.459924)
(14.1243 -0.836864 0.264824)
(13.682 -1.57186 0.736405)
(12.5891 -0.873193 0.586922)
(10.0659 1.68798 0.528613)
(14.1623 -14.6056 0.261114)
(10.8633 -11.0672 0.253906)
(13.1749 -9.03747 0.106526)
(16.4097 -7.47615 0.060576)
(20.0552 -6.78649 0.0226598)
(24.0071 -6.56075 -0.0338307)
(28.2949 -6.34394 -0.0847649)
(32.6529 -5.82554 -0.104937)
(36.5059 -4.47161 -0.061411)
(39.1139 -2.28743 0.0746974)
(38.356 -1.7415 0.450374)
(36.662 -3.08109 0.780992)
(37.5664 -3.5216 0.71363)
(38.5257 -3.78932 0.653143)
(39.4905 -3.90943 0.606804)
(40.4442 -3.90849 0.570393)
(41.3755 -3.81999 0.539995)
(42.2647 -3.67397 0.513297)
(43.0931 -3.50075 0.489183)
(43.8656 -3.33499 0.468156)
(44.5266 -3.2182 0.447445)
(45.4002 -3.18509 0.451443)
(13.988 -1.13945 0.350241)
(12.6849 -2.11147 0.865206)
(10.4802 -1.59575 1.31493)
(8.84662 0.0765211 0.894256)
(7.16571 2.73363 0.693537)
(3.4836 1.15679 0.211941)
(13.3118 -3.89754 0.190035)
(7.53597 -14.71 0.381201)
(6.64531 -13.4597 0.182516)
(7.92867 -11.6626 0.106929)
(10.2017 -10.2939 0.0732534)
(12.9077 -9.56759 0.0439252)
(15.806 -9.17484 0.0101123)
(18.8057 -8.76552 -0.0158942)
(21.7541 -8.01736 -0.016759)
(24.4745 -6.55383 0.0287964)
(26.8706 -4.52042 0.130513)
(27.6081 -4.21804 0.398676)
(27.604 -5.49756 0.659838)
(29.2763 -5.74067 0.623521)
(30.7841 -5.8537 0.585436)
(32.1702 -5.8586 0.552684)
(33.4674 -5.7632 0.52512)
(34.6892 -5.58583 0.501428)
(35.8332 -5.35001 0.480631)
(36.8888 -5.08531 0.462242)
(37.8606 -4.8295 0.447108)
(38.6822 -4.63093 0.432409)
(39.6998 -4.54015 0.447752)
(12.45 -0.953128 0.477251)
(9.20755 -2.08229 0.98198)
(6.4203 -1.90495 1.30164)
(3.87168 -1.44662 1.6468)
(3.37407 -1.43212 1.04486)
(2.54706 -3.41833 0.649654)
(2.73117 -7.75796 0.627019)
(2.56185 -13.8914 0.681241)
(1.23834 -15.7431 0.390086)
(0.933967 -14.9578 0.235829)
(1.80789 -13.6533 0.164678)
(3.36942 -12.5837 0.12766)
(5.21182 -11.8667 0.0973655)
(7.12874 -11.3341 0.0710311)
(9.04487 -10.7712 0.0629126)
(10.9521 -9.99929 0.0948763)
(12.9452 -8.91397 0.183702)
(15.2397 -7.76692 0.305087)
(17.6808 -7.27098 0.3314)
(18.6663 -8.15663 0.556207)
(20.639 -8.15015 0.553505)
(22.4134 -8.08143 0.533711)
(24.0502 -7.94884 0.512177)
(25.5832 -7.74262 0.492817)
(27.0246 -7.46644 0.475602)
(28.3744 -7.13398 0.460287)
(29.6222 -6.77087 0.446954)
(30.7695 -6.41495 0.436874)
(31.7411 -6.12138 0.426977)
(32.9193 -5.95782 0.453852)
(3.98388 -1.36744 0.634311)
(0.867179 -1.97016 1.00161)
(-0.855974 -2.49725 1.22478)
(-2.26741 -3.28945 1.46549)
(-2.74224 -5.53529 1.65272)
(-2.1866 -8.0577 0.841297)
(-2.73763 -12.0727 0.619737)
(-4.70386 -15.7785 0.652748)
(-5.60916 -16.3615 0.446536)
(-5.7078 -15.859 0.310493)
(-5.05855 -15.0471 0.246356)
(-3.94002 -14.2949 0.220632)
(-2.59986 -13.6799 0.210207)
(-1.16667 -13.1414 0.2125)
(0.332104 -12.5983 0.235456)
(1.92954 -12.0191 0.291662)
(3.70428 -11.4441 0.381507)
(5.74794 -11.0327 0.476491)
(7.78716 -10.9275 0.516252)
(9.85118 -10.7033 0.514539)
(11.78 -10.5251 0.512668)
(13.6164 -10.3338 0.502672)
(15.3714 -10.0998 0.490724)
(17.0503 -9.80438 0.478932)
(18.6526 -9.44174 0.467395)
(20.1719 -9.01987 0.456556)
(21.593 -8.56162 0.447096)
(22.9108 -8.10505 0.44033)
(24.0464 -7.71636 0.433592)
(25.4349 -7.4786 0.472244)
(-9.53812 -2.17961 0.78535)
(-9.92868 -2.79495 0.936802)
(-10.2127 -4.04356 1.10958)
(-10.4182 -5.66202 1.26889)
(-10.2946 -8.24034 1.28157)
(-10.4061 -11.5898 1.08446)
(-11.0973 -14.5555 0.786673)
(-12.0419 -16.1886 0.52905)
(-12.7838 -16.7079 0.358865)
(-12.9012 -16.5046 0.261923)
(-12.443 -16.0055 0.220698)
(-11.5836 -15.4715 0.212899)
(-10.4918 -14.989 0.222123)
(-9.26081 -14.5525 0.242046)
(-7.91472 -14.1354 0.274896)
(-6.44025 -13.7416 0.322531)
(-4.81052 -13.4089 0.381207)
(-3.01701 -13.1945 0.438745)
(-1.1984 -13.1311 0.472893)
(0.624398 -12.9798 0.490115)
(2.45503 -12.7915 0.496339)
(4.2829 -12.5658 0.495322)
(6.09448 -12.2878 0.49098)
(7.87817 -11.9411 0.484754)
(9.62083 -11.5183 0.477281)
(11.3064 -11.0256 0.469476)
(12.9133 -10.4849 0.46208)
(14.4278 -9.93656 0.456156)
(15.7765 -9.46804 0.451001)
(17.4612 -9.16295 0.502425)
(-20.2533 -3.54297 0.832757)
(-19.9876 -4.76744 0.909637)
(-19.6907 -6.15734 0.95659)
(-19.3334 -8.08502 1.01889)
(-19.0457 -10.5049 0.964503)
(-19.1276 -13.1003 0.793982)
(-19.663 -15.2203 0.584694)
(-20.4211 -16.5095 0.409389)
(-20.9695 -17.0251 0.288714)
(-21.0772 -17.0262 0.22315)
(-20.7594 -16.7783 0.201954)
(-20.1102 -16.4604 0.208579)
(-19.2335 -16.1507 0.23109)
(-18.1918 -15.8686 0.263033)
(-17.006 -15.6179 0.303416)
(-15.6795 -15.412 0.349375)
(-14.2127 -15.2706 0.396734)
(-12.625 -15.2051 0.439964)
(-10.9893 -15.196 0.470032)
(-9.30812 -15.1241 0.490429)
(-7.55544 -14.9878 0.501773)
(-5.74015 -14.7905 0.506775)
(-3.87867 -14.5221 0.507597)
(-1.98861 -14.1677 0.5051)
(-0.089837 -13.7197 0.499957)
(1.79297 -13.1838 0.493053)
(3.63157 -12.5812 0.484876)
(5.39974 -11.96 0.475893)
(7.05122 -11.4444 0.470166)
(9.14306 -11.0834 0.535374)
(-29.8888 -5.46079 0.754785)
(-29.0517 -6.84347 0.804973)
(-28.5673 -8.17418 0.75989)
(-28.0792 -10.0381 0.755779)
(-27.8979 -12.1108 0.687103)
(-28.0848 -14.1048 0.55514)
(-28.6032 -15.6802 0.415106)
(-29.2354 -16.7007 0.298492)
(-29.6803 -17.2147 0.218264)
(-29.8241 -17.3765 0.181012)
(-29.6561 -17.3421 0.177816)
(-29.2215 -17.2337 0.197109)
(-28.577 -17.1177 0.229785)
(-27.7607 -17.022 0.270607)
(-26.7887 -16.96 0.315972)
(-25.6688 -16.9424 0.362145)
(-24.4088 -16.9755 0.405734)
(-23.0273 -17.0517 0.443968)
(-21.556 -17.1404 0.47352)
(-19.9853 -17.172 0.495922)
(-18.2924 -17.1336 0.511268)
(-16.478 -17.0177 0.520739)
(-14.5539 -16.8114 0.525202)
(-12.5366 -16.4975 0.524792)
(-10.4472 -16.0667 0.519843)
(-8.31343 -15.5223 0.51071)
(-6.17042 -14.8848 0.496981)
(-4.06368 -14.2198 0.478162)
(-1.96841 -13.6943 0.47081)
(0.620083 -13.2877 0.550667)
(-38.5007 -7.23312 0.524583)
(-37.4631 -8.70739 0.623886)
(-36.9687 -9.78306 0.53071)
(-36.5772 -11.4136 0.505172)
(-36.5937 -13.0922 0.444868)
(-36.9405 -14.6166 0.34779)
(-37.5003 -15.8275 0.251547)
(-38.0846 -16.6768 0.175356)
(-38.5405 -17.207 0.129799)
(-38.7915 -17.499 0.11615)
(-38.8166 -17.6494 0.127769)
(-38.6306 -17.7412 0.156892)
(-38.2587 -17.8256 0.19645)
(-37.7181 -17.9289 0.241597)
(-37.0177 -18.0647 0.28829)
(-36.1609 -18.2392 0.333517)
(-35.1517 -18.4502 0.374639)
(-33.9961 -18.684 0.410423)
(-32.6998 -18.912 0.439933)
(-31.2463 -19.089 0.463974)
(-29.6152 -19.1946 0.48205)
(-27.8 -19.2133 0.494505)
(-25.8018 -19.1243 0.500836)
(-23.6307 -18.9058 0.500345)
(-21.3026 -18.5433 0.492535)
(-18.8428 -18.0341 0.476358)
(-16.2977 -17.397 0.449007)
(-13.7271 -16.7242 0.412332)
(-11.0004 -16.2046 0.410603)
(-7.91133 -15.7662 0.512268)
(-46.2703 -8.58473 0.143432)
(-45.317 -10.0721 0.389683)
(-45.0179 -10.832 0.257964)
(-44.8156 -12.1302 0.230265)
(-45.0172 -13.4241 0.184075)
(-45.4796 -14.599 0.115777)
(-46.0889 -15.5797 0.0535199)
(-46.7173 -16.3359 0.00864232)
(-47.271 -16.8891 -0.0131933)
(-47.6896 -17.2896 -0.012329)
(-47.9461 -17.5991 0.00639019)
(-48.0356 -17.8736 0.0372103)
(-47.9625 -18.15 0.0749002)
(-47.7295 -18.4492 0.115543)
(-47.3369 -18.7817 0.155661)
(-46.7804 -19.1502 0.19309)
(-46.0543 -19.5486 0.226542)
(-45.1508 -19.9624 0.25548)
(-44.058 -20.3672 0.279588)
(-42.752 -20.7304 0.299427)
(-41.2078 -21.0272 0.314444)
(-39.409 -21.2341 0.324218)
(-37.341 -21.3229 0.327108)
(-34.9998 -21.2651 0.321535)
(-32.3876 -21.037 0.304848)
(-29.5163 -20.6226 0.272298)
(-26.4426 -20.0365 0.217928)
(-23.2244 -19.3991 0.15416)
(-19.6369 -18.8999 0.161034)
(-15.8517 -18.4594 0.282492)
(-53.3303 -9.25555 -0.442604)
(-52.5382 -10.6533 0.08789)
(-52.5164 -11.1056 -0.0920837)
(-52.538 -12.1029 -0.106746)
(-52.9243 -13.0966 -0.138877)
(-53.5154 -14.0242 -0.189441)
(-54.2267 -14.8437 -0.23246)
(-54.9678 -15.5326 -0.262889)
(-55.669 -16.1033 -0.278048)
(-56.2807 -16.5882 -0.278669)
(-56.7737 -17.0259 -0.268583)
(-57.1331 -17.453 -0.25232)
(-57.3513 -17.8948 -0.233493)
(-57.4218 -18.3667 -0.214594)
(-57.3363 -18.8758 -0.197823)
(-57.0829 -19.4228 -0.184559)
(-56.6466 -20.0017 -0.175292)
(-56.0092 -20.6002 -0.170434)
(-55.1466 -21.1985 -0.170128)
(-54.0259 -21.7709 -0.173873)
(-52.6107 -22.2913 -0.181582)
(-50.867 -22.7309 -0.194268)
(-48.7604 -23.0556 -0.214168)
(-46.2614 -23.2293 -0.24401)
(-43.3445 -23.2119 -0.289121)
(-39.9985 -22.9668 -0.359062)
(-36.2749 -22.4993 -0.462439)
(-32.2048 -21.9558 -0.567555)
(-27.4878 -21.5072 -0.564408)
(-22.7415 -21.0738 -0.454042)
(-59.7094 -9.10734 -1.16161)
(-59.0796 -10.2825 -0.334362)
(-59.3754 -10.5173 -0.5568)
(-59.6449 -11.2628 -0.558238)
(-60.2268 -12.0228 -0.591763)
(-60.9749 -12.7642 -0.638577)
(-61.8208 -13.4552 -0.682086)
(-62.7015 -14.0814 -0.720453)
(-63.5604 -14.6506 -0.751785)
(-64.3574 -15.1825 -0.777001)
(-65.0629 -15.7001 -0.798895)
(-65.6587 -16.2267 -0.821221)
(-66.1303 -16.7787 -0.845782)
(-66.4663 -17.367 -0.873826)
(-66.6527 -17.9966 -0.906324)
(-66.6735 -18.6688 -0.945012)
(-66.5081 -19.38 -0.990946)
(-66.1323 -20.1223 -1.04466)
(-65.5133 -20.8812 -1.10585)
(-64.6097 -21.6371 -1.17396)
(-63.372 -22.366 -1.249)
(-61.7467 -23.0386 -1.3329)
(-59.6745 -23.6204 -1.42795)
(-57.0883 -24.0716 -1.53713)
(-53.9126 -24.3345 -1.66714)
(-50.0993 -24.3374 -1.8316)
(-45.6769 -24.0806 -2.03622)
(-40.5984 -23.7273 -2.21976)
(-34.4737 -23.3568 -2.2602)
(-28.4549 -22.8407 -2.22845)
(-65.2364 -7.96687 -1.76745)
(-64.9609 -8.83272 -0.913777)
(-65.5633 -8.91957 -1.14535)
(-66.0759 -9.45202 -1.13939)
(-66.8477 -10.0092 -1.19558)
(-67.7492 -10.5821 -1.25515)
(-68.7337 -11.143 -1.32354)
(-69.7515 -11.6842 -1.39346)
(-70.7554 -12.2072 -1.46466)
(-71.7131 -12.7228 -1.53775)
(-72.5956 -13.2446 -1.61512)
(-73.3854 -13.7861 -1.70031)
(-74.065 -14.3586 -1.79379)
(-74.6218 -14.9695 -1.89663)
(-75.0398 -15.6239 -2.01034)
(-75.3024 -16.325 -2.13829)
(-75.3868 -17.0729 -2.28191)
(-75.2654 -17.8626 -2.44168)
(-74.9011 -18.6851 -2.61819)
(-74.2463 -19.5281 -2.81284)
(-73.2419 -20.3744 -3.02825)
(-71.8184 -21.2013 -3.26831)
(-69.8926 -21.982 -3.53521)
(-67.3533 -22.6795 -3.83158)
(-64.0594 -23.2208 -4.16638)
(-59.9081 -23.5129 -4.55677)
(-54.8821 -23.5691 -4.98897)
(-48.7437 -23.5273 -5.35156)
(-40.9375 -23.2453 -5.53051)
(-33.3049 -22.5419 -5.68919)
(-69.3925 -5.49566 -2.29927)
(-69.838 -6.04509 -1.4816)
(-70.6702 -6.03138 -1.73889)
(-71.4036 -6.37424 -1.76314)
(-72.3452 -6.74151 -1.85275)
(-73.3769 -7.13972 -1.95067)
(-74.4872 -7.54384 -2.06289)
(-75.6275 -7.95017 -2.1849)
(-76.7603 -8.35723 -2.31492)
(-77.8574 -8.77039 -2.45519)
(-78.8928 -9.1976 -2.60889)
(-79.8495 -9.64578 -2.77969)
(-80.7112 -10.1226 -2.96871)
(-81.4654 -10.6326 -3.1775)
(-82.0978 -11.1812 -3.40954)
(-82.5919 -11.7716 -3.66848)
(-82.9245 -12.4045 -3.95543)
(-83.0677 -13.0776 -4.27291)
(-82.9841 -13.7877 -4.62639)
(-82.6244 -14.53 -5.02159)
(-81.9245 -15.2956 -5.46475)
(-80.8063 -16.0709 -5.96314)
(-79.1674 -16.8416 -6.52179)
(-76.853 -17.579 -7.14705)
(-73.6623 -18.2158 -7.85562)
(-69.4486 -18.6743 -8.66585)
(-64.0855 -18.9821 -9.52868)
(-56.9763 -19.1963 -10.2755)
(-47.3882 -18.9979 -10.8219)
(-38.0046 -18.3817 -11.3097)
(-71.3845 -2.51069 -2.63225)
(-72.4969 -2.70377 -1.99667)
(-73.4409 -2.69113 -2.26144)
(-74.37 -2.85948 -2.32292)
(-75.4297 -3.02137 -2.46239)
(-76.5635 -3.20628 -2.61268)
(-77.7695 -3.39746 -2.78105)
(-79.0134 -3.59105 -2.96659)
(-80.2596 -3.78837 -3.16696)
(-81.4805 -3.99062 -3.38625)
(-82.6534 -4.20036 -3.62873)
(-83.7606 -4.41987 -3.8977)
(-84.7881 -4.65165 -4.19453)
(-85.7242 -4.89736 -4.52098)
(-86.5565 -5.15866 -4.88148)
(-87.2685 -5.43633 -5.27905)
(-87.8396 -5.72999 -5.71659)
(-88.2447 -6.03884 -6.20209)
(-88.4494 -6.36234 -6.74693)
(-88.4053 -6.69873 -7.36083)
(-88.0484 -7.04383 -8.05301)
(-87.2993 -7.39122 -8.83474)
(-86.046 -7.73369 -9.71838)
(-84.1081 -8.05656 -10.7197)
(-81.2566 -8.32765 -11.8671)
(-77.3147 -8.51204 -13.1789)
(-72.0054 -8.61417 -14.5857)
(-64.3704 -8.63242 -15.9437)
(-53.6949 -8.45737 -17.2046)
(-43.1722 -8.33425 -18.111)
(13.9969 -0.163995 0.561376)
(13.9052 -0.319621 1.83345)
(12.8364 -0.058091 3.04919)
(8.60821 0.234069 6.06382)
(10.9127 -0.981116 -9.18924)
(19.9526 -0.631094 -1.84943)
(24.6297 -0.422273 -0.00231909)
(28.2448 -0.372311 -0.235833)
(32.4512 -0.37422 -1.17088)
(37.5338 -0.372449 -1.98151)
(43.1041 -0.353001 -2.29956)
(48.2212 -0.283423 -1.46053)
(51.2147 -0.140614 0.69182)
(49.6715 -0.0724752 2.38978)
(47.3854 -0.428367 2.51404)
(47.4724 -0.558148 2.32506)
(47.842 -0.642737 2.13545)
(48.3595 -0.68519 1.9815)
(48.9341 -0.694998 1.8605)
(49.5205 -0.682561 1.7579)
(50.0827 -0.656839 1.66426)
(50.5993 -0.62581 1.57421)
(51.0816 -0.597087 1.48731)
(51.5032 -0.581535 1.39674)
(52.1662 -0.570256 1.32807)
(14.0456 -0.521149 0.639573)
(13.9096 -0.993941 1.93917)
(12.976 -0.448546 2.93783)
(9.8471 1.49475 5.36259)
(13.2141 -7.76118 2.19266)
(17.8528 -5.31994 0.66968)
(21.7007 -3.92512 0.505416)
(25.1961 -3.42586 0.196094)
(28.9203 -3.34354 -0.449525)
(33.1292 -3.27765 -1.07058)
(37.63 -3.07759 -1.36367)
(41.8438 -2.54902 -0.998788)
(44.8551 -1.56529 0.257772)
(44.5409 -0.992194 1.79041)
(42.9428 -1.60111 2.17523)
(43.7079 -1.88043 2.05895)
(44.5543 -2.07362 1.91506)
(45.4523 -2.16866 1.79206)
(46.3495 -2.18112 1.69383)
(47.219 -2.13461 1.61202)
(48.035 -2.05198 1.53903)
(48.7771 -1.95461 1.46974)
(49.4564 -1.8636 1.4036)
(50.0368 -1.81082 1.33178)
(50.8893 -1.77653 1.30003)
(14.1174 -0.965315 0.798912)
(13.829 -1.84829 2.16024)
(13.0064 -1.25764 2.82111)
(11.1471 0.740918 4.86188)
(8.40946 5.07444 7.02453)
(12.2332 -16.3411 4.73545)
(11.526 -11.1884 1.9163)
(13.8126 -8.76642 1.07579)
(16.637 -7.22294 0.720383)
(19.6927 -6.49573 0.407891)
(22.923 -6.2234 -0.0245523)
(26.3499 -5.99657 -0.430231)
(29.8671 -5.57946 -0.620784)
(33.1725 -4.73475 -0.386369)
(35.8658 -3.34376 0.464172)
(36.3226 -2.60688 1.61521)
(35.8658 -3.38662 1.91061)
(37.3694 -3.64616 1.82257)
(38.7601 -3.80486 1.71484)
(40.0621 -3.85796 1.62063)
(41.2821 -3.81829 1.54327)
(42.426 -3.70897 1.47794)
(43.4855 -3.55379 1.42041)
(44.4481 -3.37848 1.36741)
(45.3233 -3.21307 1.31923)
(46.0663 -3.09729 1.26688)
(47.0426 -3.05155 1.2655)
(14.0775 -1.36047 1.05072)
(13.1067 -2.54438 2.53505)
(11.4622 -2.19081 3.69032)
(10.1101 -0.721049 4.14358)
(8.80516 1.21265 5.49374)
(7.51392 1.06349 7.83551)
(11.7391 -9.56129 8.46142)
(8.00956 -14.9714 2.67102)
(7.49208 -13.2587 1.43867)
(8.82345 -11.3354 0.964007)
(10.8926 -9.94934 0.719677)
(13.272 -9.16304 0.498912)
(15.7703 -8.7273 0.240701)
(18.3179 -8.33269 0.0258363)
(20.8691 -7.75715 -0.0250487)
(23.3524 -6.81494 0.22585)
(25.7617 -5.47625 0.861598)
(27.1124 -4.92651 1.55925)
(27.841 -5.65122 1.67202)
(29.8342 -5.7429 1.60552)
(31.6037 -5.75993 1.53213)
(33.2082 -5.70452 1.4665)
(34.6843 -5.57474 1.41057)
(36.0525 -5.38078 1.36227)
(37.3148 -5.14035 1.31997)
(38.4626 -4.87783 1.28219)
(39.5023 -4.62583 1.25028)
(40.3795 -4.43042 1.21515)
(41.4644 -4.32788 1.24267)
(13.1629 -1.26985 1.38355)
(10.5694 -2.73158 2.98793)
(8.13083 -2.52383 3.74457)
(6.94765 -1.78864 3.7331)
(5.35398 -2.06195 4.71638)
(4.87997 -3.89862 5.0785)
(4.9321 -8.42489 4.76624)
(4.35471 -13.7522 3.03982)
(3.02803 -15.2113 1.69133)
(2.72803 -14.3921 1.06366)
(3.53479 -13.1089 0.788454)
(4.96674 -12.0497 0.648764)
(6.65807 -11.317 0.536804)
(8.41893 -10.7823 0.429422)
(10.1851 -10.2638 0.371708)
(11.9786 -9.63638 0.433563)
(13.8859 -8.85432 0.677951)
(16.096 -8.05399 1.077)
(18.5234 -7.57466 1.34232)
(19.7951 -8.02203 1.44106)
(21.8893 -7.92745 1.41863)
(23.7909 -7.79399 1.38047)
(25.5428 -7.62089 1.34191)
(27.1725 -7.39405 1.30702)
(28.6929 -7.11218 1.27596)
(30.1037 -6.78459 1.24861)
(31.394 -6.43195 1.22492)
(32.5648 -6.08669 1.20728)
(33.5544 -5.80078 1.18715)
(34.7464 -5.62642 1.2428)
(7.45526 -1.33183 1.73749)
(3.82749 -2.37085 3.12733)
(1.88866 -2.82868 3.57334)
(0.277641 -3.57186 4.12672)
(-0.242878 -5.49369 4.45344)
(0.309968 -7.71038 3.80741)
(-0.159503 -11.557 2.95486)
(-2.09864 -14.8017 1.91515)
(-2.96383 -15.3654 1.24558)
(-3.09257 -14.9262 0.854237)
(-2.52086 -14.1734 0.669738)
(-1.50006 -13.4567 0.59396)
(-0.255695 -12.859 0.566636)
(1.08945 -12.3418 0.567184)
(2.5083 -11.8373 0.609114)
(4.03391 -11.3303 0.715796)
(5.73259 -10.8713 0.892769)
(7.67495 -10.5684 1.09691)
(9.64756 -10.4506 1.2236)
(11.6811 -10.2027 1.2716)
(13.6361 -9.99138 1.28113)
(15.5035 -9.76917 1.27063)
(17.2857 -9.51787 1.25564)
(18.984 -9.21923 1.2397)
(20.5959 -8.86562 1.22405)
(22.1123 -8.46165 1.20993)
(23.5166 -8.02548 1.19819)
(24.8014 -7.58947 1.19213)
(25.9028 -7.2147 1.18501)
(27.2247 -6.96819 1.2693)
(-5.44751 -1.78833 2.2499)
(-6.10743 -2.51211 2.67362)
(-6.60781 -3.8019 3.18806)
(-7.0489 -5.31259 3.55799)
(-7.03059 -7.62873 3.57623)
(-7.15378 -10.7101 3.05488)
(-7.79772 -13.4367 2.21605)
(-8.68591 -15.0688 1.47526)
(-9.39804 -15.6155 0.962791)
(-9.55443 -15.4456 0.665154)
(-9.1742 -14.975 0.530203)
(-8.40686 -14.456 0.493861)
(-7.40541 -13.9796 0.510456)
(-6.26135 -13.5474 0.557813)
(-5.00185 -13.1419 0.634076)
(-3.61322 -12.7721 0.743397)
(-2.07524 -12.4776 0.879498)
(-0.386385 -12.2981 1.01511)
(1.34215 -12.2296 1.10665)
(3.09937 -12.0621 1.16261)
(4.87861 -11.8596 1.18984)
(6.65608 -11.6245 1.20035)
(8.4129 -11.3468 1.20324)
(10.1344 -11.0125 1.20186)
(11.8056 -10.614 1.19825)
(13.4088 -10.1545 1.19415)
(14.9207 -9.6509 1.19106)
(16.3239 -9.1376 1.19294)
(17.5605 -8.69076 1.1977)
(19.0547 -8.37955 1.31317)
(-15.5885 -2.89495 2.30851)
(-15.4558 -4.10711 2.54412)
(-15.225 -5.46142 2.72362)
(-15.0168 -7.24289 2.86277)
(-14.7835 -9.4679 2.69843)
(-14.8538 -11.912 2.21067)
(-15.3551 -13.9656 1.59982)
(-16.0761 -15.2368 1.06737)
(-16.6363 -15.7468 0.689647)
(-16.8068 -15.7438 0.475814)
(-16.5786 -15.4878 0.390719)
(-16.0311 -15.154 0.390033)
(-15.2588 -14.8226 0.438703)
(-14.323 -14.5179 0.515965)
(-13.2472 -14.2458 0.613294)
(-12.0343 -14.0225 0.726098)
(-10.6875 -13.8708 0.844133)
(-9.22845 -13.7969 0.950073)
(-7.72109 -13.7693 1.02663)
(-6.16663 -13.6795 1.08209)
(-4.54478 -13.5311 1.11837)
(-2.86869 -13.3306 1.14137)
(-1.15725 -13.0713 1.15574)
(0.570486 -12.7402 1.16357)
(2.29263 -12.33 1.16718)
(3.98425 -11.8429 1.16845)
(5.61542 -11.2958 1.16894)
(7.15673 -10.7298 1.17311)
(8.57061 -10.2438 1.19006)
(10.2754 -9.87527 1.34219)
(-24.402 -4.57428 2.15642)
(-23.6137 -5.82696 2.19721)
(-23.1438 -7.11192 2.1156)
(-22.7309 -8.8493 2.08431)
(-22.5347 -10.7845 1.86211)
(-22.6669 -12.6771 1.45944)
(-23.1376 -14.1998 1.02629)
(-23.7551 -15.1871 0.657538)
(-24.2421 -15.6624 0.397146)
(-24.4662 -15.7768 0.25965)
(-24.4004 -15.6908 0.22126)
(-24.0801 -15.5259 0.251009)
(-23.5567 -15.3494 0.322626)
(-22.8687 -15.1917 0.418023)
(-22.0339 -15.0673 0.526035)
(-21.0613 -14.9899 0.638234)
(-19.9606 -14.9688 0.744803)
(-18.7533 -14.9964 0.835956)
(-17.4715 -15.0391 0.906066)
(-16.1083 -15.0326 0.96098)
(-14.6442 -14.9671 1.00184)
(-13.0818 -14.838 1.03134)
(-11.4342 -14.6354 1.05127)
(-9.71721 -14.3455 1.06223)
(-7.95282 -13.9586 1.06573)
(-6.16961 -13.4757 1.0637)
(-4.40565 -12.9142 1.05793)
(-2.706 -12.3297 1.05478)
(-1.06423 -11.8414 1.08859)
(0.820253 -11.4098 1.28569)
(-31.8667 -6.09846 1.59484)
(-30.8492 -7.35942 1.62095)
(-30.3234 -8.40519 1.39098)
(-29.9537 -9.9187 1.284)
(-29.9167 -11.4921 1.07888)
(-30.1967 -12.9332 0.77465)
(-30.7268 -14.0743 0.468964)
(-31.33 -14.8503 0.218486)
(-31.8478 -15.2926 0.05246)
(-32.1897 -15.4864 -0.0235157)
(-32.325 -15.5331 -0.0255239)
(-32.2628 -15.5164 0.0242925)
(-32.0263 -15.4887 0.105887)
(-31.6352 -15.4779 0.204149)
(-31.1007 -15.4989 0.308327)
(-30.4296 -15.5603 0.409855)
(-29.6302 -15.6632 0.501398)
(-28.7144 -15.7954 0.577782)
(-27.6932 -15.929 0.638017)
(-26.5552 -16.023 0.686177)
(-25.2827 -16.0616 0.723469)
(-23.8698 -16.0317 0.750346)
(-22.3213 -15.9186 0.766017)
(-20.6468 -15.7048 0.770072)
(-18.8646 -15.3777 0.762344)
(-17.0035 -14.9334 0.743902)
(-15.1128 -14.3907 0.715137)
(-13.2465 -13.8245 0.691107)
(-11.3416 -13.3459 0.762727)
(-9.39142 -12.8998 1.05331)
(-38.0621 -7.25599 0.73779)
(-37.2098 -8.41671 0.858586)
(-36.8097 -9.1565 0.553103)
(-36.6279 -10.3595 0.443249)
(-36.7922 -11.5634 0.287692)
(-37.2304 -12.6387 0.070369)
(-37.8519 -13.507 -0.138606)
(-38.5335 -14.1367 -0.302802)
(-39.1704 -14.5474 -0.404099)
(-39.6942 -14.793 -0.441856)
(-40.073 -14.9393 -0.42796)
(-40.3004 -15.0434 -0.378611)
(-40.3831 -15.1437 -0.308809)
(-40.3287 -15.2626 -0.230149)
(-40.1418 -15.4119 -0.151229)
(-39.824 -15.5956 -0.0790072)
(-39.3777 -15.811 -0.018122)
(-38.8043 -16.046 0.0290131)
(-38.101 -16.2789 0.0629354)
(-37.2521 -16.4813 0.0861743)
(-36.2381 -16.6344 0.099876)
(-35.0454 -16.72 0.102854)
(-33.6666 -16.7189 0.0935037)
(-32.101 -16.6099 0.0700507)
(-30.3572 -16.374 0.0287599)
(-28.4614 -16.0007 -0.0320769)
(-26.4751 -15.5108 -0.112742)
(-24.4477 -14.9926 -0.174955)
(-22.2881 -14.5275 -0.0597553)
(-20.3335 -14.0701 0.327096)
(-43.0064 -7.78576 -0.379905)
(-42.6487 -8.75154 -0.0713964)
(-42.487 -9.21214 -0.396397)
(-42.5816 -10.1088 -0.468289)
(-42.9868 -10.9976 -0.571481)
(-43.6201 -11.7974 -0.725437)
(-44.4018 -12.4626 -0.871993)
(-45.2414 -12.9763 -0.9875)
(-46.0645 -13.3524 -1.06106)
(-46.8169 -13.626 -1.09422)
(-47.469 -13.8397 -1.0959)
(-48.0069 -14.0315 -1.07789)
(-48.4285 -14.2278 -1.05037)
(-48.734 -14.4444 -1.02186)
(-48.9238 -14.6895 -0.998747)
(-48.9955 -14.9653 -0.985836)
(-48.9458 -15.2679 -0.98569)
(-48.768 -15.5872 -0.999276)
(-48.4504 -15.9066 -1.02571)
(-47.9719 -16.2048 -1.06371)
(-47.3083 -16.4627 -1.11293)
(-46.4366 -16.6603 -1.17498)
(-45.3365 -16.7751 -1.25169)
(-43.9922 -16.7829 -1.3459)
(-42.3965 -16.6585 -1.46304)
(-40.5679 -16.3818 -1.61132)
(-38.5723 -15.9741 -1.78938)
(-36.4426 -15.527 -1.92085)
(-34.0966 -15.0883 -1.7891)
(-32.182 -14.6469 -1.35187)
(-47.0357 -7.58363 -1.69094)
(-47.2567 -8.29477 -1.11434)
(-47.4026 -8.54779 -1.4585)
(-47.8552 -9.19059 -1.48758)
(-48.5552 -9.82334 -1.56429)
(-49.4411 -10.4107 -1.6897)
(-50.452 -10.9173 -1.81463)
(-51.5179 -11.3344 -1.9241)
(-52.583 -11.6709 -2.01169)
(-53.6047 -11.9491 -2.0799)
(-54.5575 -12.1962 -2.13491)
(-55.4257 -12.4365 -2.18492)
(-56.2038 -12.6873 -2.23617)
(-56.8886 -12.9584 -2.29477)
(-57.4785 -13.2556 -2.36545)
(-57.9685 -13.5806 -2.45161)
(-58.3517 -13.9302 -2.55438)
(-58.617 -14.2959 -2.67456)
(-58.7475 -14.6656 -2.81198)
(-58.7186 -15.0231 -2.96678)
(-58.5012 -15.3517 -3.13987)
(-58.0636 -15.6312 -3.333)
(-57.3733 -15.8393 -3.54825)
(-56.398 -15.9509 -3.78851)
(-55.1098 -15.935 -4.05993)
(-53.5139 -15.7618 -4.37674)
(-51.6713 -15.452 -4.7304)
(-49.578 -15.095 -4.99355)
(-47.1722 -14.6934 -4.91787)
(-45.3525 -14.2979 -4.52273)
(-50.6698 -6.5752 -3.06517)
(-51.3227 -7.09471 -2.19198)
(-51.8389 -7.16827 -2.61161)
(-52.7447 -7.59462 -2.62446)
(-53.8036 -8.02566 -2.71865)
(-55.0266 -8.44143 -2.85843)
(-56.3455 -8.81807 -3.00377)
(-57.7143 -9.14669 -3.15136)
(-59.0883 -9.43302 -3.29542)
(-60.4352 -9.68984 -3.43923)
(-61.7339 -9.93439 -3.58617)
(-62.9701 -10.1817 -3.74154)
(-64.1376 -10.4423 -3.90889)
(-65.2332 -10.722 -4.0933)
(-66.255 -11.0257 -4.2991)
(-67.1966 -11.3547 -4.52903)
(-68.0493 -11.7054 -4.78353)
(-68.8009 -12.0716 -5.06501)
(-69.4335 -12.4457 -5.37555)
(-69.9218 -12.8172 -5.71746)
(-70.2343 -13.1723 -6.0934)
(-70.3345 -13.4927 -6.50666)
(-70.1827 -13.7594 -6.95982)
(-69.731 -13.9495 -7.45531)
(-68.9296 -14.0267 -8.00367)
(-67.7709 -13.9539 -8.62547)
(-66.3002 -13.7553 -9.28867)
(-64.4363 -13.4995 -9.80167)
(-62.1213 -13.1264 -9.92024)
(-60.4579 -12.801 -9.70263)
(-53.9965 -4.55152 -4.4238)
(-55.2243 -4.98535 -3.35512)
(-56.2699 -4.92391 -3.79947)
(-57.6909 -5.17415 -3.85524)
(-59.1942 -5.44335 -4.02718)
(-60.8491 -5.71562 -4.22478)
(-62.5761 -5.97669 -4.44483)
(-64.3478 -6.2168 -4.6821)
(-66.1267 -6.43996 -4.93349)
(-67.8891 -6.65253 -5.20122)
(-69.6163 -6.86524 -5.48781)
(-71.2966 -7.08659 -5.7964)
(-72.9235 -7.32225 -6.12956)
(-74.4957 -7.57552 -6.49271)
(-76.0099 -7.84967 -6.89084)
(-77.4591 -8.14377 -7.32594)
(-78.8348 -8.45461 -7.80014)
(-80.1278 -8.7802 -8.31895)
(-81.3217 -9.11845 -8.88705)
(-82.3926 -9.46299 -9.50844)
(-83.3093 -9.80222 -10.1896)
(-84.0361 -10.123 -10.938)
(-84.5309 -10.4122 -11.7579)
(-84.7329 -10.6492 -12.6552)
(-84.5725 -10.7965 -13.6516)
(-84.0321 -10.8175 -14.7713)
(-83.1146 -10.7313 -15.9406)
(-81.6123 -10.5678 -16.9187)
(-79.4819 -10.2664 -17.5267)
(-77.9569 -10.1882 -17.6683)
(-56.2569 -2.1538 -5.79607)
(-58.6149 -2.36408 -4.63102)
(-60.1355 -2.32424 -5.0911)
(-62.0545 -2.45285 -5.2519)
(-64.0209 -2.57556 -5.53175)
(-66.1074 -2.70679 -5.84594)
(-68.2669 -2.83417 -6.2)
(-70.4753 -2.95503 -6.58784)
(-72.7034 -3.07139 -7.00769)
(-74.9277 -3.18536 -7.46088)
(-77.1292 -3.3002 -7.95026)
(-79.295 -3.41792 -8.47716)
(-81.418 -3.53938 -9.04422)
(-83.497 -3.66437 -9.65746)
(-85.5267 -3.79289 -10.3231)
(-87.4999 -3.92274 -11.0442)
(-89.4127 -4.05216 -11.8269)
(-91.2591 -4.18093 -12.6816)
(-93.0231 -4.30795 -13.6137)
(-94.6817 -4.42874 -14.6298)
(-96.2079 -4.53595 -15.7421)
(-97.5703 -4.62328 -16.9644)
(-98.7238 -4.68434 -18.3074)
(-99.5943 -4.70853 -19.7873)
(-100.094 -4.67915 -21.4419)
(-100.174 -4.58457 -23.2954)
(-99.7408 -4.43961 -25.2471)
(-98.4126 -4.26355 -27.0801)
(-96.0781 -4.05955 -28.6737)
(-94.027 -4.07042 -29.5365)
(14.003 -0.203595 0.902968)
(14.2525 -0.430681 2.77026)
(13.8919 -0.175496 4.51229)
(12.9633 0.0343056 7.99216)
(9.09505 -0.0443324 -10.9112)
(18.6174 -1.30572 -5.87217)
(22.8809 -0.567064 -0.121746)
(24.5079 -0.362847 1.17578)
(26.6016 -0.347795 0.267337)
(29.4546 -0.353345 -1.21661)
(32.8478 -0.349702 -2.48917)
(36.4953 -0.332874 -3.01942)
(40.0336 -0.288176 -2.07115)
(42.9593 -0.196561 0.665191)
(43.8636 -0.234045 2.92899)
(44.2715 -0.564248 3.01947)
(45.6254 -0.612723 2.97327)
(46.877 -0.64507 2.87794)
(48.0144 -0.655845 2.77589)
(49.0294 -0.647127 2.67959)
(49.9322 -0.624492 2.58404)
(50.7245 -0.593882 2.48517)
(51.4091 -0.561023 2.38099)
(52.0096 -0.531863 2.27276)
(52.5157 -0.515681 2.15551)
(53.2177 -0.498757 2.04785)
(14.0606 -0.637986 1.03244)
(14.2553 -1.28915 2.96018)
(13.9044 -0.939469 4.47473)
(13.5243 0.00337531 7.84813)
(13.194 2.39362 14.4754)
(9.41802 -10.7444 0.436184)
(16.6683 -7.52346 2.48074)
(19.9905 -4.80977 1.86864)
(22.5413 -3.49106 1.65927)
(24.8847 -3.1633 0.967144)
(27.4704 -3.12519 -0.114898)
(30.3739 -3.06628 -1.12359)
(33.4659 -2.90102 -1.65632)
(36.5108 -2.55147 -1.30249)
(39.2251 -1.90722 0.246621)
(40.3727 -1.49262 2.18421)
(40.8548 -1.8813 2.63943)
(42.5529 -1.98658 2.65671)
(44.0855 -2.05487 2.59159)
(45.4786 -2.0688 2.50882)
(46.735 -2.03262 2.4298)
(47.8678 -1.95917 2.35479)
(48.8791 -1.86339 2.28063)
(49.7667 -1.761 2.20466)
(50.5508 -1.66862 2.12649)
(51.2092 -1.61527 2.04066)
(52.0974 -1.56842 1.96573)
(14.1409 -1.16063 1.30051)
(14.2207 -2.23511 3.31605)
(13.8391 -1.87852 4.44835)
(13.3126 -0.903101 6.83567)
(13.8512 0.935435 10.2194)
(12.7301 -13.7254 4.33954)
(13.8205 -10.2819 2.92946)
(15.7204 -7.94835 2.1472)
(17.9383 -6.56229 1.69847)
(20.2591 -5.98118 1.16141)
(22.653 -5.76801 0.442741)
(25.141 -5.5724 -0.233028)
(27.6975 -5.24193 -0.601222)
(30.2313 -4.67212 -0.390704)
(32.6763 -3.74267 0.631545)
(34.1054 -3.15319 2.03041)
(35.1434 -3.58548 2.37528)
(37.2063 -3.65118 2.38174)
(39.0283 -3.66676 2.32819)
(40.6552 -3.6253 2.26194)
(42.1173 -3.52822 2.19874)
(43.4409 -3.38688 2.14005)
(44.634 -3.21679 2.08463)
(45.6954 -3.03705 2.03105)
(46.6394 -2.87187 1.97905)
(47.4341 -2.75712 1.92269)
(48.4171 -2.70017 1.89)
(14.1477 -1.63133 1.67366)
(13.7273 -2.94347 3.82433)
(12.8068 -2.89374 5.38436)
(12.0526 -1.96817 6.32257)
(11.5346 -1.66892 8.42585)
(12.1737 -3.38285 10.345)
(12.1174 -8.94723 10.6685)
(11.4337 -13.1576 7.14428)
(9.94486 -13.7352 3.76137)
(9.85387 -12.0585 2.44254)
(10.9818 -10.3211 1.85847)
(12.6854 -9.1074 1.51147)
(14.5984 -8.43718 1.15255)
(16.5613 -8.06099 0.72574)
(18.5317 -7.71608 0.351391)
(20.5245 -7.25615 0.197045)
(22.5688 -6.59683 0.442713)
(24.7982 -5.68373 1.19881)
(26.7443 -5.2201 2.02658)
(28.4178 -5.56301 2.12461)
(30.6611 -5.49905 2.10841)
(32.639 -5.39756 2.06918)
(34.4099 -5.2617 2.02534)
(36.0112 -5.0827 1.98287)
(37.4699 -4.86289 1.94351)
(38.7948 -4.61327 1.90801)
(39.9833 -4.35198 1.87625)
(41.0431 -4.10547 1.84888)