# Force coefficients
# liftDir     : (0.000000e+00 0.000000e+00 1.000000e+00)
# dragDir     : (1.000000e+00 0.000000e+00 0.000000e+00)
# pitchAxis   : (0.000000e+00 1.000000e+00 0.000000e+00)
# magUInf     : 2.000000e+01
# lRef        : 4.200000e+01
# Aref        : 1.400000e+03
# CofR        : (0.000000e+00 0.000000e+00 0.000000e+00)
# Time        	Cm            	Cd            	Cl            	Cl(f)         	Cl(r)         
1             	-1.134654e-02	-1.890586e+00	-1.262868e+00	-6.427804e-01	-6.200873e-01
2             	-2.336162e-02	-1.034688e+01	-3.085449e+00	-1.566086e+00	-1.519363e+00
3             	-6.216797e-03	6.564111e-02	8.108454e+00	4.048010e+00	4.060444e+00
4             	2.608850e-04	5.038539e+00	1.189400e+01	5.947261e+00	5.946739e+00
5             	3.506059e-04	6.202254e+00	9.422069e+00	4.711385e+00	4.710684e+00
6             	-1.751441e-03	5.300473e+00	5.080180e+00	2.538339e+00	2.541842e+00
7             	-3.994985e-03	3.491847e+00	3.481326e+00	1.736668e+00	1.744658e+00
8             	-5.746325e-03	1.550802e+00	3.816369e+00	1.902438e+00	1.913931e+00
9             	-4.942457e-03	8.675613e-01	2.709993e+00	1.350054e+00	1.359939e+00
10            	-3.334071e-03	7.569976e-01	1.155343e+00	5.743376e-01	5.810057e-01
11            	-2.131546e-03	7.023630e-01	1.679424e-01	8.183964e-02	8.610273e-02
12            	-1.643723e-03	3.611340e-01	-4.310215e-01	-2.171545e-01	-2.138670e-01
13            	-1.678942e-03	1.964481e-02	-2.850047e-01	-1.441813e-01	-1.408234e-01
14            	-1.777698e-03	-1.649599e-01	-5.592942e-02	-2.974241e-02	-2.618701e-02
15            	-1.597016e-03	-1.815200e-01	-7.363048e-02	-3.841226e-02	-3.521823e-02
16            	-1.397606e-03	-1.562247e-01	-1.146969e-01	-5.874604e-02	-5.595083e-02
17            	-1.251394e-03	-1.517123e-01	5.402595e-04	-9.812642e-04	1.521524e-03
18            	-1.148452e-03	-1.448452e-01	3.375595e-02	1.572952e-02	1.802643e-02
19            	-1.054522e-03	-1.388453e-01	2.232148e-02	1.010622e-02	1.221526e-02
20            	-9.432950e-04	-1.321872e-01	-7.009614e-04	-1.293776e-03	5.928143e-04
21            	-8.204507e-04	-1.147169e-01	-8.636827e-02	-4.400459e-02	-4.236368e-02
22            	-6.586711e-04	-6.801844e-02	-1.717119e-01	-8.651460e-02	-8.519726e-02
23            	-4.996798e-04	-6.189240e-03	-1.954407e-01	-9.822003e-02	-9.722067e-02
24            	-3.406702e-04	4.094636e-02	-1.912542e-01	-9.596778e-02	-9.528644e-02
25            	-2.316638e-04	6.942357e-02	-1.670106e-01	-8.373694e-02	-8.327361e-02
26            	-1.397578e-04	8.421365e-02	-1.394745e-01	-6.987699e-02	-6.959747e-02
27            	-8.247478e-05	9.100761e-02	-1.130486e-01	-5.660679e-02	-5.644184e-02
28            	-5.693448e-05	9.148388e-02	-8.892349e-02	-4.451868e-02	-4.440481e-02
29            	-3.923472e-05	8.753517e-02	-6.478227e-02	-3.243037e-02	-3.235190e-02
30            	-1.848493e-05	7.969411e-02	-3.982817e-02	-1.993257e-02	-1.989560e-02
31            	-2.794991e-06	7.133049e-02	-1.513744e-02	-7.571516e-03	-7.565926e-03
32            	2.659760e-05	6.377736e-02	6.538895e-03	3.296045e-03	3.242850e-03
33            	5.110307e-05	5.741363e-02	2.445339e-02	1.227780e-02	1.217559e-02
34            	5.350646e-05	5.253809e-02	3.878924e-02	1.944813e-02	1.934111e-02
35            	5.723524e-05	4.884674e-02	4.976962e-02	2.494205e-02	2.482758e-02
36            	5.726642e-05	4.602763e-02	5.797478e-02	2.904466e-02	2.893012e-02
37            	5.539952e-05	4.417369e-02	6.323648e-02	3.167364e-02	3.156284e-02
38            	5.362574e-05	4.276265e-02	6.604913e-02	3.307819e-02	3.297094e-02
39            	5.054597e-05	4.268640e-02	6.789049e-02	3.399579e-02	3.389470e-02
40            	4.380143e-05	4.324870e-02	6.882005e-02	3.445383e-02	3.436622e-02
41            	4.521991e-05	4.288113e-02	6.910462e-02	3.459753e-02	3.450709e-02
42            	4.578251e-05	4.283539e-02	6.834844e-02	3.422000e-02	3.412844e-02
43            	4.845701e-05	4.284392e-02	6.727826e-02	3.368759e-02	3.359067e-02
44            	5.339170e-05	4.386669e-02	6.611498e-02	3.311088e-02	3.300410e-02
45            	6.070975e-05	4.597670e-02	6.495747e-02	3.253944e-02	3.241802e-02
46            	6.842764e-05	4.900048e-02	6.376911e-02	3.195298e-02	3.181613e-02
47            	7.740461e-05	5.263406e-02	6.232892e-02	3.124186e-02	3.108705e-02
48            	8.753193e-05	5.649303e-02	6.064966e-02	3.041236e-02	3.023730e-02
49            	9.678790e-05	6.028266e-02	5.875779e-02	2.947568e-02	2.928211e-02
50            	1.055762e-04	6.375712e-02	5.670213e-02	2.845664e-02	2.824549e-02
51            	1.126128e-04	6.671388e-02	5.477430e-02	2.749976e-02	2.727454e-02
52            	1.145301e-04	6.757134e-02	5.328287e-02	2.675597e-02	2.652691e-02
53            	1.199077e-04	6.911428e-02	5.024760e-02	2.524371e-02	2.500389e-02
54            	1.220384e-04	6.979084e-02	4.921399e-02	2.472903e-02	2.448496e-02
55            	1.240546e-04	7.065459e-02	4.754572e-02	2.389692e-02	2.364881e-02
56            	1.244590e-04	7.109775e-02	4.709702e-02	2.367297e-02	2.342405e-02
57            	1.205286e-04	7.067974e-02	4.679908e-02	2.352007e-02	2.327901e-02
58            	1.209401e-04	7.093126e-02	4.729208e-02	2.376698e-02	2.352510e-02
59            	1.183280e-04	7.054218e-02	4.766068e-02	2.394867e-02	2.371201e-02
60            	1.144656e-04	6.979920e-02	4.805077e-02	2.413985e-02	2.391092e-02
61            	1.102187e-04	6.902920e-02	4.853315e-02	2.437680e-02	2.415636e-02
62            	1.059981e-04	6.857328e-02	4.912602e-02	2.466901e-02	2.445701e-02
63            	1.029632e-04	6.856822e-02	4.981267e-02	2.500930e-02	2.480337e-02
64            	1.009207e-04	6.900505e-02	5.047763e-02	2.533974e-02	2.513789e-02
65            	9.994456e-05	6.977174e-02	5.109942e-02	2.564965e-02	2.544976e-02
66            	9.969692e-05	7.071867e-02	5.166429e-02	2.593184e-02	2.573245e-02
67            	9.975349e-05	7.169613e-02	5.220207e-02	2.620079e-02	2.600128e-02
68            	9.995461e-05	7.256780e-02	5.273764e-02	2.646877e-02	2.626886e-02
69            	9.992639e-05	7.324853e-02	5.329867e-02	2.674926e-02	2.654941e-02
70            	9.980038e-05	7.370077e-02	5.392399e-02	2.706179e-02	2.686219e-02
71            	9.946962e-05	7.393912e-02	5.463037e-02	2.741465e-02	2.721571e-02
72            	9.912843e-05	7.401542e-02	5.543461e-02	2.781643e-02	2.761818e-02
73            	9.886985e-05	7.399831e-02	5.636161e-02	2.827967e-02	2.808193e-02
74            	9.860174e-05	7.395090e-02	5.741058e-02	2.880389e-02	2.860669e-02
75            	9.837549e-05	7.392388e-02	5.857454e-02	2.938565e-02	2.918890e-02
76            	9.854198e-05	7.394957e-02	5.983340e-02	3.001524e-02	2.981816e-02
77            	9.865154e-05	7.404645e-02	6.113185e-02	3.066458e-02	3.046727e-02
78            	9.862522e-05	7.421615e-02	6.242987e-02	3.131356e-02	3.111631e-02
79            	9.862594e-05	7.444130e-02	6.373435e-02	3.196580e-02	3.176855e-02
80            	9.843259e-05	7.468785e-02	6.501365e-02	3.260526e-02	3.240839e-02
81            	9.824323e-05	7.494106e-02	6.618140e-02	3.318894e-02	3.299246e-02
82            	9.799895e-05	7.517397e-02	6.731982e-02	3.375791e-02	3.356191e-02
83            	9.787123e-05	7.536330e-02	6.838344e-02	3.428959e-02	3.409385e-02
84            	9.730831e-05	7.533904e-02	6.925184e-02	3.472323e-02	3.452861e-02
85            	9.650826e-05	7.511065e-02	6.993963e-02	3.506632e-02	3.487331e-02
86            	9.537177e-05	7.476790e-02	7.043189e-02	3.531132e-02	3.512057e-02
87            	9.430228e-05	7.437548e-02	7.073936e-02	3.546398e-02	3.527538e-02
88            	9.321374e-05	7.397429e-02	7.085964e-02	3.552303e-02	3.533661e-02
89            	9.238149e-05	7.359441e-02	7.083605e-02	3.551040e-02	3.532564e-02
90            	9.178306e-05	7.325883e-02	7.067865e-02	3.543111e-02	3.524754e-02
91            	9.143579e-05	7.298538e-02	7.045837e-02	3.532062e-02	3.513775e-02
92            	9.141892e-05	7.277643e-02	7.018409e-02	3.518346e-02	3.500062e-02
93            	9.159030e-05	7.261978e-02	6.988868e-02	3.503593e-02	3.485275e-02
94            	9.217807e-05	7.254258e-02	6.959713e-02	3.489074e-02	3.470639e-02
95            	9.271686e-05	7.244051e-02	6.930051e-02	3.474297e-02	3.455754e-02
96            	9.341437e-05	7.229995e-02	6.901016e-02	3.459849e-02	3.441167e-02
97            	9.397308e-05	7.212195e-02	6.874681e-02	3.446738e-02	3.427943e-02
98            	9.437449e-05	7.181945e-02	6.847315e-02	3.433095e-02	3.414220e-02
99            	9.454534e-05	7.146694e-02	6.820221e-02	3.419565e-02	3.400656e-02
100           	9.469099e-05	7.110337e-02	6.794955e-02	3.406946e-02	3.388008e-02
101           	9.488190e-05	7.075204e-02	6.772942e-02	3.395959e-02	3.376983e-02
102           	9.526605e-05	7.042789e-02	6.753374e-02	3.386213e-02	3.367160e-02
103           	9.577847e-05	7.013825e-02	6.737510e-02	3.378333e-02	3.359177e-02
104           	9.642074e-05	6.988041e-02	6.724898e-02	3.372091e-02	3.352807e-02
105           	9.694264e-05	6.957895e-02	6.713866e-02	3.366627e-02	3.347239e-02
106           	9.755896e-05	6.931995e-02	6.706639e-02	3.363076e-02	3.343564e-02
107           	9.838146e-05	6.910042e-02	6.705126e-02	3.362401e-02	3.342725e-02
108           	9.920814e-05	6.889913e-02	6.708779e-02	3.364310e-02	3.344469e-02
109           	1.001837e-04	6.869681e-02	6.718644e-02	3.369340e-02	3.349304e-02
110           	1.008837e-04	6.848545e-02	6.732854e-02	3.376516e-02	3.356339e-02
111           	1.018299e-04	6.826311e-02	6.752750e-02	3.386558e-02	3.366192e-02
112           	1.024429e-04	6.803675e-02	6.776228e-02	3.398358e-02	3.377869e-02
113           	1.034745e-04	6.780961e-02	6.805032e-02	3.412863e-02	3.392168e-02
114           	1.042216e-04	6.759181e-02	6.836457e-02	3.428650e-02	3.407806e-02
115           	1.051998e-04	6.738819e-02	6.871429e-02	3.446234e-02	3.425194e-02
116           	1.061219e-04	6.720391e-02	6.908990e-02	3.465107e-02	3.443883e-02
117           	1.071956e-04	6.703631e-02	6.949387e-02	3.485413e-02	3.463974e-02
118           	1.084292e-04	6.696722e-02	6.997884e-02	3.509785e-02	3.488099e-02
119           	1.097876e-04	6.688975e-02	7.050140e-02	3.536049e-02	3.514091e-02
120           	1.109828e-04	6.679052e-02	7.103350e-02	3.562773e-02	3.540577e-02
121           	1.121865e-04	6.667178e-02	7.157430e-02	3.589934e-02	3.567496e-02
122           	1.131933e-04	6.655329e-02	7.210813e-02	3.616726e-02	3.594087e-02
123           	1.142690e-04	6.644046e-02	7.264469e-02	3.643661e-02	3.620808e-02
124           	1.153809e-04	6.634374e-02	7.317939e-02	3.670508e-02	3.647431e-02
125           	1.165212e-04	6.625909e-02	7.371463e-02	3.697384e-02	3.674080e-02
126           	1.175296e-04	6.619381e-02	7.424110e-02	3.723808e-02	3.700302e-02
127           	1.187120e-04	6.613938e-02	7.477434e-02	3.750588e-02	3.726846e-02
128           	1.197376e-04	6.609914e-02	7.530031e-02	3.776989e-02	3.753042e-02
129           	1.208852e-04	6.606406e-02	7.583071e-02	3.803624e-02	3.779447e-02
130           	1.218336e-04	6.603864e-02	7.635218e-02	3.829792e-02	3.805426e-02
131           	1.228531e-04	6.601769e-02	7.687407e-02	3.855989e-02	3.831418e-02
132           	1.238905e-04	6.600320e-02	7.739511e-02	3.882144e-02	3.857366e-02
133           	1.249466e-04	6.598989e-02	7.791240e-02	3.908115e-02	3.883125e-02
134           	1.257540e-04	6.598415e-02	7.841684e-02	3.933418e-02	3.908267e-02
135           	1.267820e-04	6.598252e-02	7.892106e-02	3.958731e-02	3.933375e-02
136           	1.275748e-04	6.598837e-02	7.941476e-02	3.983496e-02	3.957981e-02
137           	1.285348e-04	6.599803e-02	7.990525e-02	4.008116e-02	3.982409e-02
138           	1.293250e-04	6.604571e-02	8.041170e-02	4.033518e-02	4.007653e-02
139           	1.303625e-04	6.609680e-02	8.092876e-02	4.059474e-02	4.033402e-02
140           	1.312012e-04	6.614194e-02	8.143808e-02	4.085024e-02	4.058784e-02
141           	1.321586e-04	6.617768e-02	8.194001e-02	4.110216e-02	4.083784e-02
142           	1.327572e-04	6.621070e-02	8.242001e-02	4.134276e-02	4.107725e-02
143           	1.336649e-04	6.624153e-02	8.289600e-02	4.158166e-02	4.131433e-02
144           	1.342345e-04	6.627444e-02	8.335155e-02	4.181001e-02	4.154154e-02
145           	1.351466e-04	6.630742e-02	8.380547e-02	4.203788e-02	4.176759e-02
146           	1.357053e-04	6.634297e-02	8.424013e-02	4.225577e-02	4.198436e-02
147           	1.364587e-04	6.638112e-02	8.466859e-02	4.247075e-02	4.219784e-02
148           	1.370317e-04	6.642075e-02	8.508602e-02	4.268004e-02	4.240598e-02
149           	1.377843e-04	6.645980e-02	8.549736e-02	4.288647e-02	4.261090e-02
150           	1.382534e-04	6.649918e-02	8.589194e-02	4.308422e-02	4.280772e-02
151           	1.389767e-04	6.653837e-02	8.628227e-02	4.328011e-02	4.300216e-02
152           	1.392869e-04	6.657952e-02	8.665341e-02	4.346599e-02	4.318742e-02
153           	1.400185e-04	6.662032e-02	8.702520e-02	4.365262e-02	4.337258e-02
154           	1.404111e-04	6.666032e-02	8.738175e-02	4.383129e-02	4.355047e-02
155           	1.410299e-04	6.669987e-02	8.772870e-02	4.400538e-02	4.372332e-02
156           	1.413333e-04	6.674042e-02	8.805617e-02	4.416942e-02	4.388675e-02
157           	1.418808e-04	6.678203e-02	8.837638e-02	4.433007e-02	4.404631e-02
158           	1.420832e-04	6.682593e-02	8.867751e-02	4.448084e-02	4.419667e-02
159           	1.427631e-04	6.686738e-02	8.898198e-02	4.463375e-02	4.434822e-02
160           	1.429781e-04	6.690671e-02	8.926311e-02	4.477453e-02	4.448858e-02
161           	1.434440e-04	6.694498e-02	8.953702e-02	4.491195e-02	4.462507e-02
162           	1.436271e-04	6.698351e-02	8.979402e-02	4.504064e-02	4.475338e-02
163           	1.441085e-04	6.701946e-02	9.004790e-02	4.516806e-02	4.487984e-02
164           	1.442628e-04	6.705336e-02	9.028278e-02	4.528565e-02	4.499713e-02
165           	1.446343e-04	6.708561e-02	9.050972e-02	4.539950e-02	4.511023e-02
166           	1.447736e-04	6.711368e-02	9.071416e-02	4.550185e-02	4.521231e-02
167           	1.451514e-04	6.713711e-02	9.090908e-02	4.559969e-02	4.530939e-02
168           	1.452386e-04	6.715933e-02	9.108653e-02	4.568850e-02	4.539803e-02
169           	1.455944e-04	6.718129e-02	9.126366e-02	4.577742e-02	4.548624e-02
170           	1.455683e-04	6.720486e-02	9.142252e-02	4.585683e-02	4.556569e-02
171           	1.459273e-04	6.722753e-02	9.158358e-02	4.593772e-02	4.564586e-02
172           	1.459937e-04	6.724819e-02	9.173079e-02	4.601139e-02	4.571940e-02
173           	1.462747e-04	6.726639e-02	9.187286e-02	4.608270e-02	4.579015e-02
174           	1.462438e-04	6.728353e-02	9.199941e-02	4.614595e-02	4.585346e-02
175           	1.464657e-04	6.729910e-02	9.212409e-02	4.620851e-02	4.591558e-02
176           	1.464256e-04	6.731458e-02	9.223501e-02	4.626393e-02	4.597108e-02
177           	1.466393e-04	6.732825e-02	9.234514e-02	4.631921e-02	4.602593e-02
178           	1.466331e-04	6.734069e-02	9.244590e-02	4.636958e-02	4.607632e-02
179           	1.467732e-04	6.735179e-02	9.254149e-02	4.641752e-02	4.612397e-02
180           	1.466588e-04	6.736425e-02	9.262270e-02	4.645801e-02	4.616469e-02
181           	1.468988e-04	6.737558e-02	9.270670e-02	4.650025e-02	4.620645e-02
182           	1.466624e-04	6.738822e-02	9.276988e-02	4.653160e-02	4.623828e-02
183           	1.469248e-04	6.739923e-02	9.284406e-02	4.656895e-02	4.627510e-02
184           	1.467425e-04	6.741049e-02	9.289844e-02	4.659596e-02	4.630248e-02
185           	1.469123e-04	6.741877e-02	9.295466e-02	4.662424e-02	4.633042e-02
186           	1.467227e-04	6.742684e-02	9.299597e-02	4.664471e-02	4.635126e-02
187           	1.467822e-04	6.743372e-02	9.303522e-02	4.666439e-02	4.637083e-02
188           	1.465538e-04	6.744231e-02	9.306151e-02	4.667731e-02	4.638420e-02
189           	1.466771e-04	6.744962e-02	9.309131e-02	4.669233e-02	4.639898e-02
190           	1.464148e-04	6.745791e-02	9.310761e-02	4.670022e-02	4.640739e-02
191           	1.465412e-04	6.746425e-02	9.312930e-02	4.671119e-02	4.641811e-02
192           	1.462444e-04	6.746714e-02	9.313239e-02	4.671244e-02	4.641995e-02
193           	1.463103e-04	6.747777e-02	9.313931e-02	4.671596e-02	4.642334e-02
194           	1.460975e-04	6.748431e-02	9.313545e-02	4.671382e-02	4.642163e-02
195           	1.460996e-04	6.749120e-02	9.312963e-02	4.671092e-02	4.641872e-02
196           	1.458594e-04	6.750009e-02	9.311685e-02	4.670429e-02	4.641257e-02
197           	1.458736e-04	6.750914e-02	9.310371e-02	4.669773e-02	4.640598e-02
198           	1.456408e-04	6.751793e-02	9.308350e-02	4.668739e-02	4.639611e-02
199           	1.456600e-04	6.752530e-02	9.306375e-02	4.667754e-02	4.638622e-02
200           	1.453747e-04	6.753272e-02	9.303501e-02	4.666288e-02	4.637213e-02
201           	1.453744e-04	6.753931e-02	9.300756e-02	4.664915e-02	4.635840e-02
202           	1.449972e-04	6.754720e-02	9.297059e-02	4.663029e-02	4.634030e-02
203           	1.451498e-04	6.755217e-02	9.294385e-02	4.661708e-02	4.632678e-02
204           	1.448120e-04	6.755791e-02	9.290300e-02	4.659631e-02	4.630669e-02
205           	1.448320e-04	6.756309e-02	9.286508e-02	4.657737e-02	4.628771e-02
206           	1.445641e-04	6.756823e-02	9.282149e-02	4.655531e-02	4.626618e-02
207           	1.445751e-04	6.757147e-02	9.278001e-02	4.653458e-02	4.624543e-02
208           	1.442103e-04	6.757594e-02	9.272904e-02	4.650873e-02	4.622031e-02
209           	1.441778e-04	6.758048e-02	9.268294e-02	4.648565e-02	4.619729e-02
210           	1.439669e-04	6.758327e-02	9.263703e-02	4.646248e-02	4.617455e-02
211           	1.439670e-04	6.758480e-02	9.259160e-02	4.643977e-02	4.615183e-02
212           	1.436162e-04	6.758888e-02	9.253799e-02	4.641261e-02	4.612538e-02
213           	1.436536e-04	6.759321e-02	9.249140e-02	4.638935e-02	4.610205e-02
214           	1.433591e-04	6.759874e-02	9.243934e-02	4.636303e-02	4.607631e-02
215           	1.433288e-04	6.760459e-02	9.238960e-02	4.633813e-02	4.605147e-02
216           	1.430828e-04	6.761060e-02	9.233786e-02	4.631201e-02	4.602585e-02
217           	1.431054e-04	6.761566e-02	9.228807e-02	4.628714e-02	4.600093e-02
218           	1.428011e-04	6.762190e-02	9.223237e-02	4.625898e-02	4.597338e-02
219           	1.428331e-04	6.762684e-02	9.218313e-02	4.623440e-02	4.594873e-02
220           	1.426132e-04	6.763022e-02	9.213167e-02	4.620845e-02	4.592322e-02
221           	1.426202e-04	6.763143e-02	9.208138e-02	4.618331e-02	4.589807e-02
222           	1.423067e-04	6.763350e-02	9.202609e-02	4.615535e-02	4.587074e-02
223           	1.423792e-04	6.763417e-02	9.197759e-02	4.613117e-02	4.584642e-02
224           	1.420600e-04	6.763551e-02	9.192487e-02	4.610450e-02	4.582038e-02
225           	1.421685e-04	6.763400e-02	9.188005e-02	4.608219e-02	4.579786e-02
226           	1.418417e-04	6.763339e-02	9.182734e-02	4.605551e-02	4.577183e-02
227           	1.419106e-04	6.763247e-02	9.178099e-02	4.603241e-02	4.574858e-02
228           	1.416410e-04	6.763335e-02	9.173066e-02	4.600697e-02	4.572369e-02
229           	1.416993e-04	6.763388e-02	9.168652e-02	4.598496e-02	4.570156e-02
230           	1.414557e-04	6.763464e-02	9.163957e-02	4.596124e-02	4.567833e-02
231           	1.415037e-04	6.763509e-02	9.159581e-02	4.593941e-02	4.565640e-02
232           	1.412272e-04	6.763744e-02	9.154845e-02	4.591545e-02	4.563300e-02
233           	1.413531e-04	6.763879e-02	9.150897e-02	4.589584e-02	4.561313e-02
234           	1.410724e-04	6.764127e-02	9.146415e-02	4.587315e-02	4.559100e-02
235           	1.411970e-04	6.764259e-02	9.142627e-02	4.585433e-02	4.557194e-02
236           	1.408779e-04	6.764593e-02	9.138275e-02	4.583225e-02	4.555050e-02
237           	1.410784e-04	6.764651e-02	9.135029e-02	4.581622e-02	4.553407e-02
238           	1.408225e-04	6.764665e-02	9.130968e-02	4.579566e-02	4.551402e-02
239           	1.409307e-04	6.764570e-02	9.127427e-02	4.577807e-02	4.549621e-02
240           	1.407138e-04	6.764533e-02	9.123606e-02	4.575874e-02	4.547732e-02
241           	1.407380e-04	6.764496e-02	9.120378e-02	4.574263e-02	4.546115e-02
242           	1.405881e-04	6.764295e-02	9.117240e-02	4.572679e-02	4.544561e-02
243           	1.407063e-04	6.763869e-02	9.114308e-02	4.571225e-02	4.543083e-02
244           	1.404840e-04	6.763508e-02	9.111073e-02	4.569585e-02	4.541488e-02
245           	1.406277e-04	6.763054e-02	9.108490e-02	4.568308e-02	4.540182e-02
246           	1.403677e-04	6.762773e-02	9.105407e-02	4.566740e-02	4.538667e-02
247           	1.404349e-04	6.762640e-02	9.102917e-02	4.565502e-02	4.537415e-02
248           	1.402877e-04	6.762556e-02	9.100441e-02	4.564249e-02	4.536192e-02
249           	1.404615e-04	6.762312e-02	9.098537e-02	4.563314e-02	4.535222e-02
250           	1.402354e-04	6.762207e-02	9.095948e-02	4.561998e-02	4.533951e-02
251           	1.403023e-04	6.762245e-02	9.093941e-02	4.561001e-02	4.532940e-02
252           	1.401969e-04	6.762265e-02	9.092070e-02	4.560054e-02	4.532015e-02
253           	1.403725e-04	6.762057e-02	9.090532e-02	4.559303e-02	4.531229e-02
254           	1.401584e-04	6.761867e-02	9.088464e-02	4.558248e-02	4.530216e-02
255           	1.403177e-04	6.761543e-02	9.086975e-02	4.557519e-02	4.529456e-02
256           	1.400838e-04	6.761334e-02	9.085038e-02	4.556528e-02	4.528511e-02
257           	1.401571e-04	6.761267e-02	9.083721e-02	4.555876e-02	4.527845e-02
258           	1.401029e-04	6.761046e-02	9.082678e-02	4.555349e-02	4.527329e-02
259           	1.402626e-04	6.760663e-02	9.081804e-02	4.554928e-02	4.526876e-02
260           	1.400468e-04	6.760380e-02	9.080370e-02	4.554190e-02	4.526180e-02
261           	1.402232e-04	6.760144e-02	9.079554e-02	4.553799e-02	4.525755e-02
262           	1.399902e-04	6.760177e-02	9.078312e-02	4.553155e-02	4.525157e-02
263           	1.402138e-04	6.760143e-02	9.077878e-02	4.552960e-02	4.524918e-02
264           	1.400218e-04	6.760202e-02	9.076922e-02	4.552463e-02	4.524459e-02
265           	1.401700e-04	6.760276e-02	9.076449e-02	4.552242e-02	4.524208e-02
266           	1.400610e-04	6.760343e-02	9.075963e-02	4.551988e-02	4.523975e-02
267           	1.402310e-04	6.760340e-02	9.075803e-02	4.551924e-02	4.523878e-02
268           	1.400475e-04	6.760432e-02	9.075054e-02	4.551532e-02	4.523522e-02
269           	1.402110e-04	6.760458e-02	9.074892e-02	4.551467e-02	4.523425e-02
270           	1.400855e-04	6.760472e-02	9.074592e-02	4.551305e-02	4.523287e-02
271           	1.402548e-04	6.760348e-02	9.074631e-02	4.551341e-02	4.523290e-02
272           	1.400818e-04	6.760299e-02	9.074135e-02	4.551076e-02	4.523059e-02
273           	1.402571e-04	6.760197e-02	9.074269e-02	4.551160e-02	4.523109e-02
274           	1.401330e-04	6.760062e-02	9.074198e-02	4.551112e-02	4.523086e-02
275           	1.402820e-04	6.759731e-02	9.074344e-02	4.551200e-02	4.523144e-02
276           	1.401028e-04	6.759575e-02	9.073963e-02	4.550992e-02	4.522971e-02
277           	1.403039e-04	6.759432e-02	9.074281e-02	4.551171e-02	4.523110e-02
278           	1.401574e-04	6.759389e-02	9.074227e-02	4.551129e-02	4.523098e-02
279           	1.403184e-04	6.759349e-02	9.074549e-02	4.551306e-02	4.523243e-02
280           	1.401684e-04	6.759420e-02	9.074522e-02	4.551278e-02	4.523244e-02
281           	1.402848e-04	6.759557e-02	9.074824e-02	4.551441e-02	4.523384e-02
282           	1.402334e-04	6.759646e-02	9.075238e-02	4.551642e-02	4.523596e-02
283           	1.404275e-04	6.759554e-02	9.075887e-02	4.551986e-02	4.523901e-02
284           	1.402613e-04	6.759499e-02	9.075927e-02	4.551990e-02	4.523938e-02
285           	1.404688e-04	6.759302e-02	9.076477e-02	4.552285e-02	4.524192e-02
286           	1.402731e-04	6.759143e-02	9.076475e-02	4.552265e-02	4.524210e-02
287           	1.404227e-04	6.758937e-02	9.076888e-02	4.552486e-02	4.524402e-02
288           	1.402870e-04	6.758778e-02	9.077068e-02	4.552562e-02	4.524505e-02
289           	1.403822e-04	6.758674e-02	9.077592e-02	4.552834e-02	4.524758e-02
290           	1.403536e-04	6.758541e-02	9.078365e-02	4.553218e-02	4.525147e-02
291           	1.405345e-04	6.758349e-02	9.079221e-02	4.553664e-02	4.525557e-02
292           	1.403771e-04	6.758311e-02	9.079500e-02	4.553788e-02	4.525712e-02
293           	1.405838e-04	6.758261e-02	9.080239e-02	4.554178e-02	4.526061e-02
294           	1.403988e-04	6.758327e-02	9.080384e-02	4.554232e-02	4.526152e-02
295           	1.405774e-04	6.758315e-02	9.080967e-02	4.554541e-02	4.526426e-02
296           	1.403931e-04	6.758357e-02	9.081115e-02	4.554597e-02	4.526518e-02
297           	1.406469e-04	6.758142e-02	9.082147e-02	4.555138e-02	4.527009e-02
298           	1.404614e-04	6.757926e-02	9.082561e-02	4.555326e-02	4.527234e-02
299           	1.405825e-04	6.757743e-02	9.083247e-02	4.555682e-02	4.527565e-02
300           	1.405007e-04	6.757632e-02	9.083896e-02	4.555998e-02	4.527898e-02
301           	1.406714e-04	6.757534e-02	9.084735e-02	4.556435e-02	4.528300e-02
302           	1.405308e-04	6.757541e-02	9.085126e-02	4.556616e-02	4.528510e-02
303           	1.407409e-04	6.757519e-02	9.085920e-02	4.557034e-02	4.528886e-02
304           	1.405128e-04	6.757624e-02	9.086052e-02	4.557077e-02	4.528975e-02
305           	1.407459e-04	6.757567e-02	9.086886e-02	4.557517e-02	4.529368e-02
306           	1.405790e-04	6.757484e-02	9.087284e-02	4.557700e-02	4.529584e-02
307           	1.407860e-04	6.757329e-02	9.088081e-02	4.558119e-02	4.529962e-02
308           	1.405636e-04	6.757316e-02	9.088374e-02	4.558243e-02	4.530131e-02
309           	1.408203e-04	6.757083e-02	9.089432e-02	4.558798e-02	4.530634e-02
310           	1.406213e-04	6.757006e-02	9.089786e-02	4.558955e-02	4.530831e-02
311           	1.408421e-04	6.756793e-02	9.090662e-02	4.559415e-02	4.531247e-02
312           	1.406785e-04	6.756724e-02	9.091024e-02	4.559580e-02	4.531444e-02
313           	1.408304e-04	6.756653e-02	9.091657e-02	4.559912e-02	4.531746e-02
314           	1.405965e-04	6.756783e-02	9.091635e-02	4.559877e-02	4.531758e-02
315           	1.408946e-04	6.756690e-02	9.092680e-02	4.560429e-02	4.532250e-02
316           	1.407160e-04	6.756644e-02	9.093091e-02	4.560617e-02	4.532474e-02
317           	1.408984e-04	6.756547e-02	9.093826e-02	4.561003e-02	4.532823e-02
318           	1.406984e-04	6.756624e-02	9.094019e-02	4.561079e-02	4.532940e-02
319           	1.408937e-04	6.756659e-02	9.094695e-02	4.561437e-02	4.533258e-02
320           	1.407262e-04	6.756819e-02	9.095016e-02	4.561581e-02	4.533435e-02
321           	1.408697e-04	6.756970e-02	9.095556e-02	4.561865e-02	4.533691e-02
322           	1.407959e-04	6.757098e-02	9.096130e-02	4.562145e-02	4.533986e-02
323           	1.409562e-04	6.757104e-02	9.096887e-02	4.562539e-02	4.534348e-02
324           	1.407632e-04	6.757260e-02	9.096961e-02	4.562557e-02	4.534404e-02
325           	1.409820e-04	6.757347e-02	9.097574e-02	4.562885e-02	4.534689e-02
326           	1.407684e-04	6.757529e-02	9.097675e-02	4.562915e-02	4.534761e-02
327           	1.410185e-04	6.757503e-02	9.098531e-02	4.563367e-02	4.535164e-02
328           	1.408142e-04	6.757481e-02	9.098728e-02	4.563445e-02	4.535282e-02
329           	1.410132e-04	6.757340e-02	9.099372e-02	4.563787e-02	4.535585e-02
330           	1.408471e-04	6.757216e-02	9.099605e-02	4.563887e-02	4.535718e-02
331           	1.409932e-04	6.757063e-02	9.100112e-02	4.564155e-02	4.535957e-02
332           	1.407966e-04	6.757075e-02	9.100094e-02	4.564127e-02	4.535967e-02
333           	1.410010e-04	6.757082e-02	9.100634e-02	4.564417e-02	4.536217e-02
334           	1.408336e-04	6.757207e-02	9.100813e-02	4.564490e-02	4.536323e-02
335           	1.410585e-04	6.757215e-02	9.101570e-02	4.564891e-02	4.536679e-02
336           	1.408436e-04	6.757372e-02	9.101660e-02	4.564914e-02	4.536746e-02
337           	1.409845e-04	6.757592e-02	9.101942e-02	4.565069e-02	4.536872e-02
338           	1.408848e-04	6.757858e-02	9.102151e-02	4.565164e-02	4.536987e-02
339           	1.410624e-04	6.758008e-02	9.102688e-02	4.565450e-02	4.537238e-02
340           	1.408597e-04	6.758253e-02	9.102558e-02	4.565365e-02	4.537193e-02
341           	1.410888e-04	6.758298e-02	9.103154e-02	4.565686e-02	4.537468e-02
342           	1.408691e-04	6.758395e-02	9.103117e-02	4.565645e-02	4.537472e-02
343           	1.410068e-04	6.758465e-02	9.103371e-02	4.565786e-02	4.537585e-02
344           	1.409236e-04	6.758496e-02	9.103650e-02	4.565917e-02	4.537733e-02
345           	1.411020e-04	6.758372e-02	9.104267e-02	4.566244e-02	4.538023e-02
346           	1.409035e-04	6.758338e-02	9.104228e-02	4.566205e-02	4.538024e-02
347           	1.410641e-04	6.758308e-02	9.104511e-02	4.566362e-02	4.538149e-02
348           	1.408902e-04	6.758363e-02	9.104390e-02	4.566284e-02	4.538106e-02
349           	1.410475e-04	6.758346e-02	9.104700e-02	4.566455e-02	4.538245e-02
350           	1.408918e-04	6.758373e-02	9.104642e-02	4.566410e-02	4.538232e-02
351           	1.410365e-04	6.758370e-02	9.104891e-02	4.566549e-02	4.538342e-02
352           	1.409193e-04	6.758386e-02	9.104995e-02	4.566590e-02	4.538406e-02
353           	1.410974e-04	6.758275e-02	9.105503e-02	4.566861e-02	4.538642e-02
354           	1.409079e-04	6.758305e-02	9.105357e-02	4.566769e-02	4.538588e-02
355           	1.410868e-04	6.758339e-02	9.105612e-02	4.566915e-02	4.538697e-02
356           	1.409169e-04	6.758397e-02	9.105500e-02	4.566842e-02	4.538659e-02
357           	1.410517e-04	6.758440e-02	9.105644e-02	4.566927e-02	4.538717e-02
358           	1.408299e-04	6.758541e-02	9.105282e-02	4.566724e-02	4.538558e-02
359           	1.411043e-04	6.758455e-02	9.105859e-02	4.567040e-02	4.538819e-02
360           	1.409133e-04	6.758361e-02	9.105884e-02	4.567033e-02	4.538851e-02
361           	1.410810e-04	6.758246e-02	9.106193e-02	4.567205e-02	4.538989e-02
362           	1.409052e-04	6.758317e-02	9.105945e-02	4.567063e-02	4.538882e-02
363           	1.410083e-04	6.758469e-02	9.105985e-02	4.567093e-02	4.538891e-02
364           	1.409410e-04	6.758578e-02	9.106094e-02	4.567141e-02	4.538953e-02
365           	1.411086e-04	6.758530e-02	9.106501e-02	4.567361e-02	4.539139e-02
366           	1.409175e-04	6.758520e-02	9.106302e-02	4.567243e-02	4.539059e-02
367           	1.410985e-04	6.758378e-02	9.106569e-02	4.567395e-02	4.539175e-02
368           	1.408800e-04	6.758288e-02	9.106281e-02	4.567229e-02	4.539053e-02