/*--------------------------------*- C++ -*----------------------------------*\
  =========                 |
  \\      /  F ield         | OpenFOAM: The Open Source CFD Toolbox
   \\    /   O peration     | Website:  https://openfoam.org
    \\  /    A nd           | Version:  10
     \\/     M anipulation  |
\*---------------------------------------------------------------------------*/
FoamFile
{
    format      ascii;
    class       volScalarField;
    location    "200";
    object      k;
}
// * * * * * * * * * * * * * * * * * * * * * * * * * * * * * * * * * * * * * //

dimensions      [0 2 -2 0 0 0 0];

internalField   nonuniform List<scalar> 
27507
(
349.007
348.908
350.353
309.662
27.8967
66.0646
109.12
143.78
168.182
188.143
208.914
231.817
251.513
247.427
217.676
198.072
182.187
169.367
159.022
150.653
143.816
138.124
133.166
128.894
124.287
348.74
347.592
348.581
324.795
38.47
85.2221
125.306
154.065
174.521
192.2
211.35
232.639
250.65
243.781
212.919
194.463
179.616
167.635
157.899
149.898
143.202
137.449
132.29
127.717
122.811
348.259
345.642
345.086
335.834
8.0244
86.4269
124.974
151.475
169.368
182.46
194.901
209.512
226.418
240.594
231.05
202.054
186.386
173.804
163.522
154.938
147.578
141.06
135.11
129.496
124.354
118.847
347.687
343.439
338.8
333.029
300.001
31.0276
29.6121
135.383
151.771
162.562
172.752
180.427
186.134
192.163
200.39
210.793
219.767
210.066
186.709
175.03
165.453
157.293
150.033
143.282
136.767
130.364
124.054
118.174
112.029
347.115
341.354
334.931
325.652
313.413
282.932
239.339
219.488
203.656
192.679
186.504
184.009
182.98
182.395
182.631
184.375
187.774
190.35
186.747
170.83
162.967
156.04
149.585
143.192
136.536
129.492
122.287
115.133
108.587
102.247
346.606
339.603
331.844
322.036
308.277
293.345
269.548
244.064
225.091
209.319
196.981
187.821
181.146
176.383
173.117
171.077
169.724
167.819
163.786
158.374
152.604
146.836
140.753
133.844
126.118
117.915
109.905
102.394
95.8765
90.4966
346.177
338.142
329.272
318.781
305.652
289.186
270.326
250.397
231.745
215.111
200.94
189.492
180.692
174.241
169.772
166.705
164.168
161.081
156.489
150.707
144.352
137.354
129.299
120.155
110.622
101.657
94.0451
87.3652
82.3925
80.0437
345.817
336.874
326.983
315.682
302.434
286.903
269.486
251.065
232.991
216.191
201.325
188.91
179.263
172.382
167.87
164.942
162.277
158.541
152.723
144.534
134.755
123.803
112.15
100.922
91.2997
83.8604
78.2956
74.9293
73.916
74.8574
345.511
335.677
324.691
312.356
298.47
282.909
265.893
248.007
230.175
213.291
198.172
185.589
176.127
169.905
166.381
164.38
161.955
156.864
147.116
133.098
117.364
102.264
89.6082
80.2692
73.8799
69.7357
68.185
68.792
71.03
73.591
345.238
334.404
322.058
308.306
293.261
276.981
259.614
241.553
223.53
206.468
191.388
179.334
171.086
166.672
165.079
164.18
161.074
150.632
131.303
108.972
90.6778
77.7635
69.8246
65.1986
63.1891
62.7359
63.9348
66.7205
70.7486
73.9932
344.983
332.848
318.59
302.8
285.971
268.33
249.968
231.113
212.48
195.185
180.581
170.046
164.411
163.084
163.694
162.939
153.306
128.163
98.7873
76.9257
67.0964
60.658
57.8728
56.9703
57.3804
59.0908
61.8593
65.6979
70.4953
73.6058
344.728
330.613
313.376
294.548
275.124
255.442
235.436
215.144
195.55
178.265
165.204
158.003
157.026
159.112
160.747
152.227
122.85
84.9198
67.6485
55.3145
52.6675
50.595
49.9911
50.8661
52.6014
55.1336
58.4164
62.2743
66.4255
68.6259
344.446
326.728
304.371
280.935
257.906
235.471
213.11
190.578
170.022
154.021
145.209
144.695
148.502
153.272
145.787
110.912
76.3741
51.446
47.2837
41.8591
41.3447
40.9046
41.618
42.8823
44.8886
47.4085
50.3461
53.2726
56.1828
57.5914
343.975
318.07
286.16
255.967
228.416
202.717
177.193
151.364
131.664
121.391
122.486
130.092
137.599
131.65
96.2189
54.2048
43.0649
32.1045
31.3995
29.0375
28.9958
29.2873
30.0967
31.323
32.9878
34.7796
36.6991
38.4511
40.1156
40.9206
341.902
291.28
241.923
204.031
172.66
144.306
115.09
86.1706
75.9972
79.8301
96.95
109.418
103.01
64.8847
41.9164
21.614
20.181
16.21
15.8206
14.9001
14.8476
15.1884
15.7118
16.4606
17.442
18.3804
19.378
20.2783
21.103
21.4984
317.058
174.583
116.829
88.1118
69.9702
56.0872
43.7498
30.2218
22.1968
24.7682
27.5764
28.6973
20.4233
10.8738
8.043
6.13588
5.91274
6.20677
6.39775
6.62907
6.96748
7.44626
8.07966
8.69129
9.35359
9.94612
10.5652
11.1347
11.6873
11.9611
348.765
347.652
348.617
324.172
30.683
68.1351
108.729
141.938
165.628
185.173
205.651
228.329
247.884
242.652
212.838
194.393
179.335
167.089
157.125
148.993
142.301
136.701
131.825
127.628
123.172
348.515
346.58
347.026
331.406
46.8518
89.6114
125.853
152.736
172.234
189.314
208.044
229.046
246.941
239.158
208.309
190.878
176.783
165.323
155.933
148.157
141.611
135.972
130.925
126.448
121.723
348.069
344.878
343.864
333.92
128.179
22.5444
99.1378
129.87
152.714
169.006
181.165
192.901
206.925
223.392
237.385
227.212
198.176
183.242
171.195
161.288
152.966
145.802
139.449
133.655
128.207
123.212
117.893
347.539
342.868
337.702
332.321
307.005
99.099
77.6587
150.563
158.957
165.906
174.005
180.704
185.872
191.445
199.213
209.197
217.885
207.656
184.068
172.69
163.33
155.338
148.241
141.668
135.359
129.202
123.146
117.476
111.492
347.008
340.973
334.315
328.502
313.722
287.112
248.617
226.326
208.51
196.108
188.637
185.083
183.393
182.456
182.488
184.005
187.133
189.506
185.776
169.55
161.603
154.617
148.171
141.876
135.45
128.761
121.939
115.14
108.816
102.445
346.532
339.342
331.379
321.356
307.846
293.625
270.825
245.955
227.074
211.123
198.421
188.802
181.711
176.624
173.136
170.956
169.502
167.57
163.574
158.075
152.17
146.312
140.312
133.817
126.681
119.099
111.473
104.142
97.5871
91.6673
346.125
337.962
328.946
318.325
305.232
289.044
270.619
251.129
232.706
216.129
201.874
190.229
181.155
174.428
169.717
166.476
163.858
160.841
156.512
151.021
144.94
138.442
131.187
123.158
114.627
106.204
98.4641
91.4756
85.6596
81.8339
345.782
336.748
326.75
315.355
302.092
286.68
269.498
251.36
233.499
216.808
201.935
189.382
179.485
172.289
167.454
164.222
161.468
157.973
152.871
145.938
137.735
128.658
118.88
109.036
99.8531
91.9029
85.4852
80.2229
77.193
76.6401
345.486
335.585
324.519
312.109
298.192
282.688
265.821
248.137
230.482
213.696
198.558
185.797
175.996
169.322
165.314
162.885
160.458
156.205
148.894
138.502
126.425
114.188
102.951
93.4039
85.7198
79.8481
75.7359
73.6172
73.9205
75.3341
345.221
334.337
321.929
308.116
293.04
276.794
259.548
241.661
223.788
206.781
191.593
179.211
170.411
165.287
163
161.696
159.208
152.421
139.731
123.854
108.931
96.7972
87.6383
80.7594
75.5595
71.8719
69.96
70.7489
73.4559
76.4664
344.97
332.799
318.495
302.66
285.811
268.213
249.986
231.323
212.811
195.46
180.54
169.373
162.793
160.406
160.268
159.791
154.735
140.057
120.216
102.704
91.0129
82.74
76.8271
72.0397
68.3678
66.3625
66.1677
69.3698
74.4102
77.7997
344.719
330.578
313.313
294.467
275.056
255.463
235.674
215.64
196.074
178.447
164.622
156.264
153.728
154.791
156.472
153.226
137.975
114.171
96.7416
85.1121
78.4091
72.8326
68.0601
63.9254
61.8022
60.734
63.117
68.5456
74.1572
77.0669
344.44
326.709
304.355
280.956
258.022
235.801
213.873
191.721
170.812
153.684
143.257
140.837
143.426
147.996
146.456
130.525
106.599
88.1367
80.0314
73.6132
68.0951
62.1688
57.6166
54.3906
52.9926
53.7324
58.4008
64.252
69.1369
71.2328
343.973
318.077
286.245
256.23
228.985
203.814
179.251
153.865
132.334
118.935
117.781
123.851
132.111
132.343
116.356
91.4361
79.6128
71.9406
68.8935
62.4734
54.3447
47.4489
43.4898
41.6828
40.5532
43.2284
48.9218
53.5812
57.2933
58.7998
341.903
291.378
242.312
205.025
174.548
147.541
120.264
90.6575
74.1245
74.4445
88.5591
104.432
106.841
90.0851
74.7236
62.2068
60.5905
58.8804
55.2931
43.8979
32.5773
26.1384
23.4912
22.5427
22.8992
25.7376
30.1676
33.3904
36.2488
37.3749
317.065
174.707
117.217
88.8332
71.0899
57.662
45.5313
31.5
22.0159
23.1429
28.669
31.8242
29.9106
24.3729
22.5935
19.792
20.2768
18.2866
15.0927
11.8872
7.35497
5.3195
6.16557
6.93773
7.80003
9.08299
10.7753
12.3034
13.4355
13.9867
348.314
345.746
345.182
335.666
4.09835
58.3149
86.7038
114.003
140.037
160.404
177.863
196.431
217.242
235.496
230.374
203.174
187.018
173.622
162.547
153.384
145.784
139.437
134.067
129.369
125.328
121.082
348.098
344.941
343.932
333.981
95.6614
19.4152
81.7579
107.483
130.647
151.135
167.456
182.345
199.042
218.125
234.752
227.392
199.214
183.871
171.276
160.867
152.201
144.917
138.711
133.324
128.493
124.216
119.732
347.725
343.546
341.438
333.518
293.283
109.142
130.662
143.353
156.453
168.107
177.745
187.506
199.59
214.158
226.886
217.32
190.491
177.169
166.25
157.133
149.373
142.625
136.612
131.126
125.981
121.272
116.261
347.27
341.871
335.857
330.442
312.088
264.814
200.029
185.132
179.697
174.825
173.824
176.621
180.416
183.962
188.239
194.631
203.185
210.774
200.865
178.554
168.067
159.315
151.764
145.031
138.812
132.89
127.16
121.546
116.279
110.63
346.811
340.278
333.018
323.339
313.242
290.826
262.524
237.209
217.49
202.875
192.999
187.162
183.791
181.761
180.98
181.719
184.012
185.792
182.038
166.249
158.551
151.722
145.443
139.409
133.379
127.25
121.062
114.864
109.021
102.827
346.393
338.864
330.526
320.326
306.906
289.479
269.372
248.97
230.28
214.105
200.801
190.356
182.407
176.534
172.378
169.642
167.758
165.613
161.664
156.248
150.376
144.56
138.734
132.679
126.253
119.561
112.776
106.073
99.8496
93.5384
346.028
337.63
328.356
317.553
304.474
288.713
270.891
252.239
234.24
217.786
203.398
191.368
181.731
174.362
169.007
165.196
162.188
159.065
154.953
149.782
144.041
137.988
131.593
124.766
117.565
110.213
102.978
96.114
89.958
84.3246
345.714
336.51
326.325
314.774
301.473
286.24
269.412
251.751
234.264
217.773
202.892
190.095
179.71
171.836
166.248
162.324
159.123
155.624
151.03
145.148
138.466
131.222
123.538
115.617
107.736
100.144
93.0189
86.537
81.0881
76.9254
345.438
335.412
324.202
311.66
297.681
282.253
265.607
248.248
230.902
214.312
199.168
186.12
175.707
168.154
163.156
159.833
156.933
153.137
147.492
140.103
131.668
122.792
114.009
105.674
97.9092
90.6543
83.8671
78.1284
73.8089
71.6208
345.186
334.209
321.688
307.765
292.625
276.416
259.338
241.725
224.131
207.275
191.977
179.096
169.357
162.973
159.332
157.06
154.492
149.666
141.946
132.302
122.161
112.609
104.063
96.424
89.3141
82.1824
75.0371
69.7251
67.0406
68.3224
344.945
332.704
318.314
302.395
285.501
267.946
249.899
231.536
213.298
195.996
180.704
168.573
160.453
156.242
154.565
153.361
150.301
142.671
132.124
120.857
110.837
102.291
94.9831
88.3259
81.4401
73.2732
64.6879
60.3749
61.7285
66.7319
344.702
330.512
313.19
294.3
274.892
255.401
235.885
216.274
196.976
179.127
164.314
154.084
149.052
148.1
148.466
147.321
140.912
129.746
118.1
107.797
99.3404
92.2331
86.065
79.9654
72.4386
61.6161
51.7531
50.6198
58.1282
66.2385
344.429
326.67
304.301
280.93
258.104
236.127
214.719
193.296
172.481
154.388
141.524
135.602
135.623
138.422
139.242
134.348
123.906
112.337
102.687
94.1747
86.8584
80.7165
75.3375
69.546
60.318
46.1905
37.0919
43.1066
55.9473
63.5184
343.968
318.069
286.301
256.451
229.529
204.902
181.456
157.448
134.895
118.561
111.836
113.997
120.843
124.701
121.121
111.905
102.666
93.6961
85.8307
77.9911
71.0919
65.5325
60.9103
55.5047
43.7135
27.6763
23.4129
36.0752
48.332
53.9081
341.903
291.419
242.566
205.696
175.936
150.063
125.344
97.7592
75.9979
69.1942
74.954
91.292
99.7494
97.1655
91.2642
84.0591
77.827
70.848
63.6379
55.8109
49.2157
44.7214
40.6186
35.4775
22.4942
11.4388
12.7791
22.6993
31.5203
35.255
317.064
174.731
117.323
89.1732
71.7388
58.7438
47.7787
34.8855
23.6181
20.6651
25.6799
30.5856
34.6507
35.0545
34.4918
32.5201
30.5197
27.4975
24.3737
21.121
17.2159
14.5168
12.6464
10.8473
7.74117
4.61438
5.1082
7.58829
10.6151
11.8379
347.757
343.573
338.869
332.83
299.653
19.9453
106.171
120.093
125.274
132.616
144.475
157.11
169.715
184.085
200.779
215.854
211.655
189.657
176.852
165.807
156.377
148.354
141.534
135.714
130.708
126.285
122.473
118.487
347.589
342.972
337.749
332.164
306.661
99.2782
54.5645
130.372
136.182
138.722
144.566
153.815
163.712
174.172
186.806
201.882
215.455
209.435
186.559
174.291
163.825
154.897
147.259
140.692
134.992
129.984
125.465
121.468
117.283
347.294
341.919
335.876
330.374
311.806
263.742
196.812
179.131
172.337
166.003
163.004
164.565
168.876
174.022
180.307
188.962
200.004
210.014
201.993
179.808
168.898
159.632
151.662
144.714
138.568
133.034
127.967
123.216
118.879
114.247
346.932
340.665
333.659
324.008
313.124
287.922
253.978
225.583
206.279
192.789
184.558
181.074
180.432
181.069
183.031
187.042
193.083
198.7
189.922
170.61
161.625
153.897
147.07
140.894
135.167
129.734
124.514
119.423
114.654
109.461
346.559
339.41
331.462
321.462
307.642
293.15
270.002
246.867
226.833
210.655
198.449
189.94
184.212
180.367
178.09
177.443
178.256
178.989
175.392
160.957
153.958
147.607
141.707
136.071
130.533
125.001
119.48
113.973
108.737
102.955
346.21
338.248
329.443
318.967
305.809
289.452
270.863
251.707
233.569
217.345
203.48
192.104
183.064
176.081
170.876
167.17
164.454
161.802
157.894
152.719
147.125
141.56
136.045
130.475
124.763
118.874
112.929
107.01
101.396
95.1336
345.897
337.188
327.581
316.54
303.49
288.175
271.097
253.262
235.809
219.566
205.059
192.591
182.266
174.049
167.774
163.079
159.363
155.847
151.764
146.895
141.545
135.964
130.178
124.166
117.967
111.659
105.353
99.1394
93.2601
86.6975
345.62
336.187
325.75
313.992
300.631
285.577
269.148
252.002
234.959
218.736
203.886
190.836
179.892
171.192
164.62
159.725
155.77
151.921
147.519
142.327
136.498
130.276
123.815
117.205
110.543
103.937
97.433
91.0652
84.9451
78.1391
345.37
335.172
323.762
311.038
296.964
281.595
265.182
248.183
231.207
214.878
199.786
186.476
175.413
166.849
160.635
156.143
152.407
148.424
143.541
137.579
130.86
123.852
116.753
109.734
102.883
96.2414
89.6322
82.9451
76.1765
69.1056
345.137
334.028
321.347
307.267
292.025
275.83
258.916
241.605
224.352
207.738
192.42
179.099
168.396
160.6
155.371
151.734
148.389
144.146
138.426
131.388
123.86
116.28
108.931
101.902
95.1634
88.467
81.3915
73.6899
65.5591
58.6216
344.91
332.568
318.053
302.008
285.032
267.496
249.617
231.581
213.715
196.612
181.099
168.107
158.406
152.153
148.51
145.947
142.882
137.888
130.881
123.032
115.076
107.445
100.28
93.527
86.8333
79.7592
71.5084
61.4903
51.639
45.7816
344.678
330.415
313.003
294.034
274.599
255.186
235.923
216.781
197.949
180.168
164.654
152.669
145.023
141.321
139.676
138.095
134.652
128.083
120.339
112.269
104.467
97.1805
90.4194
83.9448
77.0163
69.2132
58.7966
44.8833
35.6288
35.3736
344.415
326.608
304.199
280.825
258.081
236.319
215.376
194.784
174.583
156.057
141.283
131.884
128.068
128.022
128.233
126.879
121.521
114.354
106.728
99.0888
91.7817
84.9819
78.6584
72.3602
64.9649
56.3173
41.5581
26.3559
23.7303
28.4129
343.961
318.043
286.312
256.594
229.965
205.817
183.29
160.995
138.923
120.366
108.798
105.519
107.72
111.605
112.389
109.198
103.424
96.8082
89.9781
83.0295
76.2981
70.027
64.1616
57.8409
49.8369
40.007
21.2659
13.3831
16.3551
23.7613
341.902
291.44
242.784
206.282
177.187
152.277
129.456
105.51
81.5919
67.1271
65.8492
73.1508
83.8858
88.4067
87.2837
83.4402
79.0242
73.7466
68.0526
62.0235
56.0568
50.5559
45.1502
38.3964
30.0914
19.5828
10.2107
6.62182
10.4149
17.8523
317.064
174.752
117.418
89.4642
72.3077
59.7855
49.5012
39.0296
27.2767
21.0485
20.7567
26.1172
31.0698
33.6664
33.8058
33.2119
31.9682
29.9624
27.4966
24.8033
21.9756
19.3181
16.7692
14.3626
11.6286
8.41202
6.11497
3.78258
4.91743
7.7371
347.192
341.505
335.067
329.001
312.587
279.956
229.481
206.89
188.747
174.882
164.525
158.262
156.694
158.615
163.063
170.004
179.423
188.108
188.731
174.176
165.223
156.848
149.284
142.569
136.663
131.482
126.93
122.848
119.32
115.619
347.069
341.093
334.374
328.383
312.891
284.526
241.904
217.247
197.449
182.539
171.676
165.128
162.81
163.554
166.665
172.222
180.226
187.611
187.43
172.072
163.352
155.315
148.074
141.619
135.89
130.797
126.247
122.098
118.424
114.57
346.85
340.353
333.057
323.191
312.698
289.344
259.648
232.888
211.858
195.71
183.892
176.328
172.366
170.953
171.615
174.53
179.646
184.457
182.969
167.48
159.41
152.07
145.432
139.434
133.993
129.018
124.428
120.11
116.178
111.966
346.576
339.443
331.481
321.405
307.405
292.606
269.035
245.481
225.024
208.318
195.45
186.313
180.258
176.451
174.52
174.506
176.305
178.179
175.509
161.121
154.058
147.612
141.684
136.187
131.031
126.133
121.44
116.878
112.624
107.948
346.286
338.491
329.848
319.453
306.242
293.78
273.958
253.27
233.994
217.217
203.362
192.493
184.274
178.177
173.878
171.239
170.023
169.271
166.179
154.224
148.245
142.604
137.247
132.1
127.082
122.132
117.24
112.376
107.783
102.573
346.005
337.565
328.252
317.44
304.438
288.903
271.573
253.57
236.111
220.02
205.774
193.587
183.471
175.283
168.847
163.925
160.106
156.683
152.718
147.891
142.73
137.566
132.46
127.374
122.257
117.099
111.92
106.727
101.824
96.0621
345.746
336.678
326.685
315.349
302.27
287.308
270.886
253.783
236.891
220.923
206.369
193.531
182.556
173.475
166.197
160.474
155.855
151.73
147.477
142.786
137.786
132.642
127.411
122.095
116.666
111.177
105.712
100.271
95.0996
88.7077
345.508
335.801
325.057
313.034
299.558
284.625
268.54
251.861
235.255
219.328
204.561
191.324
179.886
170.398
162.824
156.875
152.02
147.617
143.117
138.237
133.007
127.552
121.923
116.18
110.395
104.658
98.9795
93.312
87.8235
80.5392
345.287
334.874
323.213
310.249
296.022
280.659
264.431
247.756
231.141
215.105
200.129
186.652
175.054
165.574
158.179
152.477
147.785
143.35
138.624
133.393
127.743
121.793
115.703
109.612
103.597
97.6888
91.8354
85.8581
79.7116
70.9714
345.076
333.797
320.907
306.613
291.211
274.975
258.177
241.133
224.224
207.904
192.678
179.083
167.613
158.566
151.824
146.78
142.515
138.137
133.145
127.499
121.339
114.959
108.58
102.33
96.1962
90.1633
84.0297
77.43
69.7101
58.8164
344.865
332.391
317.704
301.478
284.363
266.789
249.028
231.284
213.811
197.023
181.505
167.95
156.991
148.914
143.346
139.313
135.612
131.249
125.972
119.866
113.362
106.8
100.37
94.1182
87.9195
81.6917
75.031
67.2089
56.0291
43.1933
344.646
330.284
312.74
293.638
274.119
254.727
235.658
216.937
198.655
181.215
165.418
152.239
142.439
136.11
132.299
129.543
126.367
121.976
116.371
110.083
103.557
97.094
90.8102
84.6586
78.3604
71.7848
64.3074
53.858
36.9825
27.5373
344.395
326.519
304.028
280.599
257.881
236.275
215.708
195.859
176.543
158.285
142.466
130.488
123.1
119.663
118.173
116.732
113.998
109.474
103.929
97.8834
91.6964
85.5651
79.5528
73.5602
67.0448
59.994
51.2522
34.3709
19.9112
17.3958
343.951
317.995
286.26
256.621
230.223
206.492
184.695
163.864
143.338
124.198
109.579
100.94
98.3372
99.1622
100.173
99.8108
97.4365
93.2011
88.2046
82.8194
77.2587
71.6104
65.9922
60.1638
53.3237
45.6955
33.3971
15.3811
10.3777
12.0966
341.899
291.427
242.915
206.719
178.252
154.243
132.791
111.988
90.4649
71.8085
62.0277
61.7235
67.4786
73.4547
76.3626
76.2675
74.4887
71.1237
67.0995
62.7637
58.138
53.2587
48.3891
42.7113
35.4451
26.6055
15.3209
7.10574
6.8052
10.3262
317.062
174.775
117.515
89.6828
72.8173
60.7969
50.9368
42.1717
32.3103
23.4892
19.7427
20.2899
24.498
28.4316
30.2257
30.9446
30.0782
29.0558
27.3043
25.4728
23.463
21.2845
18.9955
16.5018
13.8054
10.9791
8.10062
4.63857
3.88462
6.09728
346.681
339.738
331.89
321.579
307.098
290.936
265.304
239.17
219.222
202.045
187.727
176.427
168.279
163.071
160.493
160.416
161.957
164.04
163.283
159.787
154.001
147.941
142.057
136.562
131.54
127.003
122.925
119.206
115.98
112.562
346.593
339.457
331.424
321.067
306.909
291.629
267.39
242.185
222.547
205.489
191.24
179.947
171.617
166.009
162.772
161.821
162.546
163.643
162.418
158.483
152.748
146.833
141.115
135.768
130.852
126.369
122.289
118.523
115.18
111.653
346.436
338.948
330.567
320.161
306.306
288.266
267.579
246.72
227.58
210.767
196.569
185.121
176.333
169.927
165.618
163.257
162.53
162.091
160.073
155.608
150.064
144.446
139.033
133.936
129.186
124.767
120.65
116.758
113.219
109.417
346.235
338.299
329.473
318.892
305.512
288.85
270.005
250.677
232.384
215.934
201.723
189.915
180.436
173.038
167.494
163.668
161.252
159.31
156.235
151.58
146.341
141.099
136.036
131.208
126.614
122.232
118.036
113.968
110.191
106.027
346.016
337.587
328.269
317.419
304.342
288.703
271.303
253.276
235.817
219.714
205.416
193.126
182.848
174.449
167.773
162.636
158.738
155.42
151.672
147.046
142.101
137.18
132.385
127.733
123.206
118.78
114.445
110.161
106.133
101.541
345.796
336.859
327.012
315.797
302.77
287.776
271.317
254.224
237.411
221.572
207.161
194.428
183.463
174.232
166.636
160.512
155.56
151.276
147.038
142.474
137.732
132.978
128.28
123.641
119.039
114.467
109.937
105.428
101.168
96.0671
345.585
336.124
325.697
313.995
300.774
286.006
270.047
253.516
237.116
221.444
206.93
193.858
182.39
172.584
164.407
157.703
152.161
147.336
142.756
138.108
133.358
128.568
123.773
118.978
114.178
109.394
104.637
99.902
95.4588
89.7539
345.385
335.363
324.254
311.891
298.206
283.28
267.418
251.096
234.865
219.226
204.589
191.263
179.477
169.364
160.935
154.026
148.283
143.241
138.463
133.664
128.763
123.781
118.75
113.7
108.644
103.624
98.6759
93.7689
89.118
82.5288
345.193
334.524
322.549
309.267
294.8
279.347
263.207
246.767
230.461
214.709
199.899
186.375
174.425
164.253
155.888
149.115
143.49
138.474
133.617
128.664
123.551
118.312
113.016
107.7
102.409
97.2105
92.1186
87.0111
81.9726
73.9459
345.004
333.516
320.353
305.766
290.119
273.752
256.982
240.126
223.513
207.495
192.448
178.764
166.809
156.84
148.866
142.561
137.329
132.523
127.684
122.615
117.309
111.863
106.358
100.854
95.4056
90.0757
84.8087
79.3803
73.3513
63.0455
344.811
332.167
317.247
300.76
283.419
265.721
247.99
230.455
213.333
196.904
181.559
167.777
156.02
146.589
139.398
133.913
129.325
124.876
120.159
115.063
109.693
104.162
98.5686
93.003
87.4687
81.9841
76.4553
70.3598
61.743
48.6103
344.607
330.111
312.377
293.062
273.369
253.911
234.941
216.538
198.758
181.806
166.13
152.383
141.173
132.789
126.906
122.643
118.942
115.01
110.559
105.642
100.394
94.9545
89.4502
83.9484
78.3448
72.6127
66.6699
58.7883
44.7202
31.022
344.369
326.396
303.765
280.199
257.413
235.872
215.559
196.27
177.803
160.259
144.286
130.968
121.007
114.54
110.726
108.13
105.583
102.357
98.4485
93.9864
89.1064
83.9773
78.7331
73.39
67.6374
61.5737
54.745
41.5316
23.7456
16.9683
343.938
317.919
286.116
256.466
230.19
206.779
185.527
165.737
146.79
128.684
112.735
100.942
93.8562
90.9286
90.2557
89.616
88.5221
86.3107
83.2529
79.5129
75.2508
70.6373
65.8255
60.6847
54.6688
48.139
38.3573
19.2773
11.772
11.9668
341.895
291.396
242.947
206.947
178.956
155.739
135.309
116.446
98.0555
79.9317
65.8356
58.0197
57.3279
60.4106
64.1526
65.4018
65.4562
64.7753
62.7905
60.0192
56.6681
52.8597
48.8376
43.9942
37.5732
29.7249
17.927
7.97377
6.65982
9.3751
317.061
174.786
117.566
89.8329
73.2038
61.5293
52.17
44.0824
36.4338
28.0717
21.8192
18.9677
19.2966
21.6481
24.1828
25.1534
25.9975
25.7026
25.4327
24.2572
22.8266
21.1849
19.413
17.1391
14.6046
12.1538
8.56212
4.73354
3.87752
5.88216
346.242
338.256
329.296
318.453
304.772
287.606
268.271
248.179
229.426
212.5
197.626
184.969
174.639
166.609
160.761
156.963
154.772
153.496
151.673
148.704
144.575
139.959
135.254
130.692
126.394
122.415
118.77
115.395
112.46
109.302
346.181
338.065
328.983
318.096
304.535
287.764
268.954
249.363
230.917
214.163
199.391
186.779
176.409
168.217
162.101
157.895
155.246
153.441
151.237
147.985
143.771
139.172
134.526
130.028
125.782
121.828
118.175
114.765
111.735
108.504
346.07
337.712
328.4
317.424
304.02
287.872
269.808
251.145
233.234
216.78
202.156
189.555
179.035
170.517
163.882
158.967
155.508
152.834
149.982
146.301
141.978
137.423
132.878
128.484
124.309
120.373
116.68
113.172
109.991
106.552
345.924
337.246
327.623
316.488
303.259
287.742
270.558
252.788
235.5
219.405
204.916
192.247
181.455
172.479
165.193
159.469
155.073
151.463
147.862
143.788
139.381
134.885
130.451
126.161
122.045
118.108
114.344
110.704
107.346
103.631
345.761
336.712
326.718
315.345
302.193
287.16
270.73
253.723
237.011
221.246
206.841
194.027
182.887
173.402
165.481
158.997
153.735
149.277
145.055
140.684
136.211
131.753
127.388
123.147
119.035
115.046
111.174
107.378
103.842
99.7933
345.591
336.14
325.716
314.008
300.773
286.001
270.072
253.621
237.345
221.822
207.447
194.464
182.991
173.042
164.573
157.477
151.55
146.453
141.768
137.184
132.638
128.163
123.785
119.506
115.319
111.217
107.204
103.247
99.5622
95.1104
345.423
335.533
324.604
312.432
298.92
284.141
268.424
252.277
236.263
220.875
206.481
193.33
181.571
171.268
162.417
154.925
148.587
143.097
138.108
133.347
128.698
124.137
119.658
115.255
110.921
106.664
102.499
98.3958
94.5863
89.6234
345.256
334.873
323.319
310.506
296.479
281.407
265.605
249.498
233.548
218.17
203.7
190.389
178.416
167.895
158.85
151.19
144.694
139.042
133.903
129.018
124.253
119.561
114.926
110.349
105.834
101.415
97.1119
92.8905
88.9803
83.2725
345.09
334.114
321.741
308.029
293.194
277.518
261.333
245.01
228.926
213.428
198.818
185.35
173.239
162.638
153.594
145.999
139.582
133.979
128.838
123.907
119.055
114.235
109.445
104.696
100.017
95.4594
91.0566
86.7507
82.6285
75.6954
344.922
333.173
319.651
304.657
288.638
272.016
255.154
238.376
221.978
206.237
191.424
177.804
165.635
155.109
146.279
138.991
132.892
127.539
122.551
117.681
112.817
107.936
103.048
98.1807
93.3813
88.7264
84.2638
79.7987
74.9933
66.073
344.747
331.883
316.642
299.779
282.085
264.139
246.321
228.885
212.031
195.951
180.889
167.139
155.019
144.764
136.411
129.717
124.199
119.316
114.658
109.998
105.257
100.431
95.5468
90.6538
85.7979
81.0682
76.5032
71.575
64.6976
53.0174
344.559
329.883
311.869
292.223
272.228
252.576
233.583
215.373
197.993
181.532
166.212
152.4
140.516
130.832
123.333
117.615
113.006
108.858
104.757
100.517
96.0858
91.4803
86.7446
81.9395
77.0567
72.2224
67.3576
60.8861
49.0491
36.0134
344.336
326.223
303.365
279.541
256.549
234.937
214.748
195.834
178.024
161.265
145.768
132.043
120.771
112.19
106.182
102.007
98.7434
95.6715
92.4184
88.867
84.9833
80.7921
76.3634
71.7374
66.7953
61.7242
55.9394
44.3366
27.9825
21.2069
343.919
317.806
285.85
256.063
229.756
206.502
185.631
166.547
148.765
132.015
116.576
103.359
93.6057
87.2144
83.8338
82.0328
80.6296
79.038
76.9192
74.3613
71.2824
67.6955
63.773
59.3786
54.3041
48.7017
39.8845
20.9277
13.7493
14.2984
341.889
291.34
242.861
206.922
179.2
156.561
136.974
119.329
102.921
87.2958
72.6939
61.478
55.2164
52.9942
54.1219
55.957
56.5185
56.8487
55.8451
54.896
52.8894
50.1523
47.0815
42.9736
37.5494
30.3888
18.1818
8.24459
7.79562
11.1213
317.059
174.787
117.576
89.8902
73.4046
62.0054
53.0546
45.4594
38.6547
32.1691
25.6196
20.7937
18.3273
17.9404
18.9428
20.3332
20.8013
21.1117
21.2022
21.2717
20.6844
19.7723
18.4538
16.643
14.4852
12.4212
7.63969
4.38445
4.4121
6.25258
345.871
336.971
327.018
315.491
301.902
286.08
268.669
250.661
233.214
216.965
202.249
189.248
178.057
168.685
161.08
155.17
150.69
147.241
144.112
140.785
137.054
133.071
129.027
125.064
121.282
117.731
114.443
111.368
108.703
105.765
345.828
336.838
326.8
315.232
301.69
286.041
268.877
251.13
233.88
217.761
203.124
190.161
178.961
169.523
161.8
155.689
150.965
147.233
143.855
140.335
136.5
132.481
128.437
124.49
120.723
117.178
113.876
110.774
108.03
105.045
345.75
336.588
326.385
314.728
301.245
285.867
269.103
251.807
234.9
219.005
204.492
191.565
180.311
170.722
162.749
156.267
151.096
146.874
143.062
139.217
135.21
131.126
127.075
123.145
119.388
115.83
112.483
109.3
106.435
103.296
345.645
336.248
325.813
314.007
300.558
285.457
269.144
252.339
235.827
220.194
205.812
192.894
181.527
171.716
163.393
156.461
150.758
145.969
141.655
137.453
133.255
129.095
125.028
121.103
117.342
113.754
110.34
107.054
104.055
100.707
345.524
335.844
325.114
313.084
299.592
284.685
268.746
252.375
236.227
220.831
206.551
193.601
182.081
171.997
163.309
155.929
149.708
144.385
139.61
135.09
130.712
126.464
122.359
118.407
114.61
110.962
107.459
104.056
100.93
97.3264
345.394
335.39
324.297
311.949
298.287
283.423
267.699
251.625
235.746
220.526
206.302
193.288
181.59
171.243
162.227
154.465
147.822
142.073
136.936
132.163
127.626
123.278
119.1
115.079
111.201
107.459
103.85
100.335
97.1158
93.2011
345.26
334.885
323.343
310.547
296.548
281.528
265.818
249.857
234.107
218.969
204.747
191.644
179.782
169.22
159.957
151.93
145.006
138.978
133.598
128.643
123.975
119.52
115.24
111.111
107.117
103.259
99.5444
95.9387
92.6674
88.3469
345.121
334.311
322.191
308.769
294.218
278.807
262.881
246.833
231.056
215.893
201.612
188.406
176.407
165.696
156.291
148.136
141.092
134.946
129.455
124.404
119.647
115.097
110.708
106.456
102.336
98.3662
94.5691
90.9212
87.6246
82.6912
344.979
333.625
320.725
306.42
291.042
274.969
258.582
242.243
226.285
210.991
196.593
183.271
171.17
160.389
150.961
142.83
135.836
129.738
124.279
119.237
114.461
109.86
105.39
101.037
96.8106
92.7583
88.9344
85.2835
81.8982
75.9256
344.829
332.747
318.735
303.167
286.602
269.559
252.459
235.638
219.36
203.848
189.287
175.849
163.689
152.93
143.617
135.68
128.921
123.054
117.788
112.887
108.197
103.63
99.1462
94.7423
90.4571
86.3727
82.5816
78.903
75.0105
67.2589
344.671
331.516
315.82
298.41
280.187
261.829
243.782
226.323
209.633
193.852
179.115
165.581
153.432
142.817
133.79
126.254
119.953
114.532
109.654
105.066
100.611
96.2032
91.8079
87.4403
83.1551
79.0851
75.3187
71.3417
65.5634
55.3649
344.499
329.574
311.148
290.995
270.516
250.503
231.341
213.185
196.082
180.056
165.185
151.622
139.605
129.316
120.818
113.974
108.43
103.734
99.497
95.448
91.428
87.3489
83.1818
78.9563
74.7001
70.6394
66.7078
61.2275
50.7555
39.7065
344.293
325.979
302.761
278.499
255.112
233.251
213.024
194.324
176.985
160.876
146.026
132.606
120.938
111.293
103.75
98.0656
93.7209
90.1368
86.8687
83.6444
80.299
76.731
72.9506
68.9408
64.7121
60.5364
55.6053
44.8753
30.5368
24.2351
343.893
317.634
285.395
255.291
228.753
205.457
184.788
166.166
149.163
133.478
119.055