/*--------------------------------*- C++ -*----------------------------------*\
  =========                 |
  \\      /  F ield         | OpenFOAM: The Open Source CFD Toolbox
   \\    /   O peration     | Website:  https://openfoam.org
    \\  /    A nd           | Version:  10
     \\/     M anipulation  |
\*---------------------------------------------------------------------------*/
FoamFile
{
    format      ascii;
    class       volScalarField;
    location    "200";
    object      nut;
}
// * * * * * * * * * * * * * * * * * * * * * * * * * * * * * * * * * * * * * //

dimensions      [0 2 -1 0 0 0 0];

internalField   nonuniform List<scalar> 
27507
(
624.555
313.619
131.429
39.9729
7.66452
18.7883
35.3347
53.6132
68.6887
80.1577
89.8047
98.9634
105.908
107.323
104.943
103.277
102.02
100.988
100.035
99.0309
97.8746
96.4912
94.8959
92.9473
91.5816
625.916
381.129
159.335
53.5901
7.77801
22.8053
44.0194
63.2695
76.6856
85.9486
93.7872
101.078
106.501
107.075
104.729
103.26
102.074
100.935
99.7128
98.3089
96.6669
94.7637
92.6667
90.3358
88.5949
627.487
517.28
231.5
86.9918
0.279073
14.601
36.8404
62.181
81.1006
91.5161
97.2408
101.394
104.904
107.015
106.189
104.342
103.189
101.918
100.326
98.3732
96.1172
93.5198
90.6783
87.7487
84.8055
82.4716
630.088
542.748
347.626
164.212
58.293
0.423856
0.453436
19.3509
39.7935
62.7057
85.2965
100.681
107.781
110.236
110.577
109.513
107.399
105.224
104.255
102.864
100.599
97.8444
94.7346
91.1985
87.3754
83.4852
79.7681
76.2146
73.3655
633.187
556.285
450.171
311.959
175.803
75.3935
44.2931
60.1417
73.0252
86.5381
100.531
113.453
122.223
125.936
126.043
123.341
115.823
109.074
105.788
104.057
100.366
96.2657
91.9317
87.3428
82.4944
77.5597
73.0382
68.84
65.0748
62.0827
635.758
567.904
480.946
377.049
277.12
189.164
144.615
146.555
142.478
141.238
141.611
142.398
142.314
140.579
137.317
132.358
124.079
114.941
107.222
100.399
94.0088
87.7091
81.5802
71.5887
63.9829
59.6259
57.9173
56.0635
52.7228
50.1266
636.96
574.185
499.116
416.02
335.639
271.374
227.699
199.074
182.603
171.033
162.731
156.135
150.359
144.73
139.168
132.356
123.123
112.244
101.294
91.1867
82.2239
72.1083
59.6531
51.7719
47.4206
45.7106
45.7044
43.4437
41.0442
39.7737
636.124
573.043
502.846
430.868
363.089
305.799
261.637
228.704
204.773
186.396
171.959
160.559
151.275
143.336
135.652
126.794
115.46
101.997
88.3472
72.4716
57.8876
47.6946
41.1312
37.5011
36.0957
36.2816
34.9726
33.5047
32.9161
32.988
632.445
562.451
490.799
423.293
362.783
311.117
268.838
234.932
208.036
186.45
169.076
155.172
144.152
135.08
126.368
115.879
97.2666
72.0679
55.4813
44.5885
37.1391
32.2311
29.5709
28.7237
29.1165
27.9508
27.3524
27.4927
28.1323
28.7887
624.485
539.317
461.054
394.385
338.536
291.871
252.975
220.605
193.813
171.769
153.931
140
129.466
121.084
112.376
83.9787
59.576
44.5415
35.0507
28.8783
25.2528
23.4758
23.1479
23.4696
22.7266
22.6098
22.999
23.9063
25.117
26.0318
609.205
498.583
411.067
345.134
294.181
253.12
218.87
189.814
165.324
145.114
129.097
117.388
109.431
103.048
74.5086
51.3787
37.7821
28.6721
22.8079
19.5242
18.9015
18.7037
18.8524
18.5138
18.5764
19.189
20.1179
21.3706
22.8023
23.6827
579.502
432.499
338.719
277.747
234.424
200.663
172.386
147.974
127.349
110.708
98.3996
90.9096
87.0868
65.4286
44.9229
32.7942
24.1275
17.7836
16.0713
14.6296
14.9242
14.8414
14.6623
14.908
15.4607
16.3172
17.3943
18.5976
19.768
20.3278
517.709
332.471
245.716
197.769
165.891
141.221
119.897
100.968
85.3467
73.6975
66.8068
65.0752
53.3841
38.5219
28.5626
20.0885
15.113
11.7832
11.8158
10.7263
10.6281
10.6433
10.9366
11.3701
12.0307
12.8529
13.7662
14.6449
15.3545
15.6655
383.347
200.574
143.599
115.927
97.5269
82.4241
68.2089
55.3528
45.884
40.5763
40.0519
36.9768
30.995
24.4706
17.0168
10.7997
9.99783
7.86486
7.32829
6.3535
6.18397
6.32168
6.72401
7.34107
8.07871
8.6556
9.1824
9.65996
10.0386
10.1939
151.843
74.4851
56.3155
47.0021
39.6966
32.6643
25.2527
18.7798
16.2402
16.0072
18.6827
20.5045
18.1988
11.9219
9.14959
5.42468
4.84303
3.59333
3.01689
2.57375
2.53407
2.72397
2.99373
3.36985
3.86992
4.21995
4.43751
4.62114
4.7765
4.83888
12.496
9.27089
7.59083
6.60755
5.91248
5.324
4.78259
4.05682
3.23785
3.35727
3.58781
3.84079
3.55515
2.18222
2.34171
1.61044
1.19392
1.0543
0.978599
0.917434
0.964622
1.16507
1.37431
1.6089
1.90828
2.1682
2.23664
2.29889
2.35559
2.38339
625.993
376.812
159.269
54.143
6.46895
17.5682
34.4143
52.8512
68.0073
79.5496
89.2893
98.4843
105.435
106.699
104.303
102.799
101.673
100.739
99.856
98.9025
97.7885
96.4443
94.8943
92.9722
91.7095
627.006
441.297
188.63
64.9652
8.19406
22.8752
43.335
62.3936
75.8819
85.2545
93.1892
100.571
106.024
106.514
104.218
102.925
101.862
100.821
99.6802
98.3412
96.7625
94.9221
92.8837
90.6004
88.9257
628.557
536.723
261.84
104.851
2.02431
1.24317
17.579
38.3665
62.0289
80.3434
90.7287
96.517
100.796
104.427
106.606
105.791
104.09
103.084
101.916
100.443
98.5947
96.4462
93.9604
91.2257
88.3772
85.4987
83.2075
631.076
546.932
400.151
188.069
79.8155
1.83458
2.86631
25.1346
44.2625
65.0744
85.8521
100.389
107.257
109.687
110.131
109.244
107.23
105.148
104.406
103.163
101.084
98.4318
95.459
92.077
88.4011
84.6443
81.0037
77.4928
74.6292
633.981
559.738
459.758
338.145
195.925
92.7973
57.3982
71.3165
80.7895
91.9647
103.839
115.064
122.815
126.051
126.006
123.471
116.36
109.592
106.243
104.966
101.476
97.5636
93.3568
88.9384
84.2514
79.5045
75.0307
70.8564
67.0197
63.8835
636.31
570.231
486.541
387.734
291.045
202.706
156.444
156.887
149.914
146.598
145.257
144.74
143.772
141.547
138.11
133.269
125.412
116.568
109.054
102.447
96.2745
90.2247
84.3168
78.5223
72.9155
67.6987
63.0333
58.9327
55.2891
52.3011
637.305
575.6
502.281
421.697
343.472
280.167
235.817
205.885
187.786
175.109
165.614
158.276
151.944
145.993
140.278
133.594
124.839
114.599
104.323
94.7558
86.1599
78.4481
68.0129
59.7997
54.4481
51.2872
50.0382
46.9459
43.8646
41.7745
636.32
573.83
504.533
433.778
367.159
310.47
266.195
232.8
208.182
189.218
174.251
162.403
152.766
144.608
136.918
128.393
117.9
105.66
93.0977
79.2187
64.9529
54.7047
47.6488
42.9376
40.0104
38.657
38.5768
36.6809
34.9174
34.1508
632.547
562.855
491.647
424.73
364.816
313.555
271.397
237.418
210.306
188.477
170.846
156.707
145.48
136.293
127.733
117.975
105.522
81.7909
63.5862
51.4393
43.2188
37.603
33.8367
31.4304
30.1432
29.8578
30.1697
29.3596
28.8897
28.5849
624.536
539.523
461.49
395.131
339.624
293.256
254.558
222.277
195.474
173.362
155.404
141.303
130.581
122.098
113.892
98.0205
70.4647
52.8999
41.9046
34.834
30.2032
27.0826
25.0753
23.8852
23.3879
23.4346
23.6823
23.9068
23.6766
23.1871
609.238
498.727
411.378
345.671
294.988
254.213
220.214
191.297
166.826
146.559
130.395
118.432
110.153
103.871
89.6705
61.8928
45.6839
35.692
29.2553
24.9734
22.3011
20.4364
19.2227
18.4365
18.0692
18.0988
18.2236
18.7776
19.3262
19.926
579.541
432.679
339.083
278.359
235.331
201.911
173.95
149.631
128.895
112.079
99.4504
91.4626
87.1618
79.3017
54.2024
39.9526
31.402
25.3075
21.5795
18.8398
17.0528
15.6176
14.5535
13.7911
13.5215
13.5163
14.1111
15.368
16.5269
17.4163
517.767
332.739
246.203
198.575
167.058
142.832
121.906
102.888
86.8412
74.77
67.2575
64.7069
63.2984
45.49
34.693
27.7292
22.5398
18.6757
16.3974
14.3833
12.7619
11.3394
10.376
9.75032
9.50462
9.80402
10.8905
12.3792
13.7028
14.3771
383.409
200.904
144.129
116.871
98.8833
84.3392
70.5712
57.2605
46.8867
40.7199
39.5049
41.1099
34.6159
29.2636
24.2367
19.2462
16.428
13.8759
12.2496
10.3918
8.6529
7.3418
6.59838
6.22819
6.03715
6.61438
7.80512
9.08879
10.2597
10.9013
151.869
74.7188
56.6869
47.8373
40.8944
34.417
27.2833
20.083
16.1404
16.0337
18.6226
21.0517
21.5659
19.1394
16.4941
13.0604
11.2585
9.76751
8.429
6.21434
4.4095
3.4837
3.05754
2.86314
2.91288
3.42388
4.25411
5.18723
6.09884
6.63231
12.4963
9.27222
7.60048
6.63057
5.95352
5.38796
4.87842
4.14746
3.29227
3.19967
3.63933
3.87736
3.96279
3.42207
3.47169
3.05332
3.18509
2.75818
2.11051
1.55144
0.896491
0.624071
0.713171
0.783925
0.891095
1.10321
1.41215
1.8704
2.32972
2.55896
627.709
498.976
230.005
89.0202
0.204702
9.2168
20.5046
35.3464
52.4557
67.2332
78.7372
88.43
97.4129
104.145
105.363
103.367
102.208
101.345
100.598
99.8486
98.9929
97.9585
96.6865
95.2148
93.3361
92.2527
628.589
536.692
260.637
104.96
1.12798
1.05509
13.7074
27.4946
44.6421
61.8914
75.0303
84.4596
92.3221
99.6122
104.861
105.376
103.566
102.586
101.754
100.888
99.8822
98.6543
97.1839
95.447
93.5057
91.294
89.7794
630.478
545.37
342.321
156.877
45.8858
12.6755
28.416
45.3155
64.206
80.1888
90.147
95.9211
100.307
103.913
105.934
105.195
104.066
103.273
102.292
101.001
99.3249
97.3253
95.0089
92.44
89.7191
86.9529
84.7702
632.822
554.467
444.294
266.571
141.997
42.2579
19.3937
27.2908
42.2413
57.2147
72.9637
89.0267
101.126
107.336
109.664
110.26
109.521
107.445
105.421
105.198
104.115
102.316
99.8723
97.0857
93.9544
90.5244
86.985
83.4483
80.0826
77.2291
635.34
565.466
473.041
357.236
235.583
146.007
105.278
96.1865
98.8592
104.884
112.236
119.737
125.145
127.269
126.791
124.456
118.062
111.156
107.683
106.997
103.862
100.218
96.2491
92.0706
87.6589
83.1589
78.8734
74.7734
70.996
67.571
637.25
574.129
495.385
404.005
314.825
243.364
199.761
176.72
164.429
156.933
152.613
149.701
147.044
143.814
139.921
135.149
127.973
119.643
112.507
106.229
100.456
94.8222
89.2423
83.7377
78.3551
73.2442
68.5059
64.3369
60.4721
56.8615
637.89
577.99
507.548
431.061
356.892
294.465
249.163
218.386
197.674
182.758
171.375
162.559
155.15
148.552
142.473
135.928
127.924
118.691
109.411
100.718
92.7419
85.4963
78.8675
72.7497
67.1593
62.1048
57.5457
53.5658
49.7119
46.4695
636.648
575.156
507.387
438.731
374.225
318.557
274.235
240.336
214.619
194.579
178.679
165.987
155.668
147.043
139.286
131.25
121.968
111.406
100.517
90.3152
81.3
73.4658
65.2517
58.8415
53.9111
50.0796
47.3375
43.6748
40.1202
37.3454
632.712
563.518
493.07
427.189
368.37
317.873
276.023
242.026
214.603
192.363
174.279
159.685
148.031
138.58
130.181
121.348
111.011
99.3274
85.9905
71.8695
61.724
54.3494
48.9284
44.7596
41.379
38.4629
36.0807
34.1859
31.7727
29.4132
624.615
539.845
462.193
396.376
341.494
295.697
257.421
225.395
198.667
176.487
158.329
143.884
132.757
124.061
116.231
107.32
96.0556
75.4729
61.6075
52.3902
46.0754
41.5429
38.0633
35.1947
32.5118
29.7535
27.0794
24.79
22.6563
20.4333
609.287
498.932
411.831
346.487
296.263
256.001
222.509
194
169.745
149.488
133.1
120.616
111.725
105.195
98.797
87.1683
66.9432
54.009
45.9453
40.567
36.7179
33.5973
30.946
28.4504
25.7735
22.5906
19.3784
17.1228
15.671
15.4396
579.593
432.895
339.54
279.15
236.556
203.675
176.33
152.512
131.971
115.021
101.869
92.8805
87.6116
84.1104
76.9994
58.9188
47.9518
41.3142
37.1747
33.8221
30.9602
28.2398
25.6522
23.1011
20.0425
16.1486
12.8092
11.422
11.5216
12.7985
517.826
332.998
246.718
199.434
168.362
144.725
124.57
106.112
90.0642
77.4815
68.8378
64.5825
63.5848
62.8352
50.4365
42.3032
37.7824
34.8055
32.4636
29.8484
27.0103
23.959
21.1596
18.3625
14.7276
10.4193
7.75326
7.96032
9.51226
11.2735
383.446
201.137
144.589
117.651
100.086
86.1335
73.3004
60.467
49.6299
42.3509
39.1953
39.8786
42.6534
40.2781
36.4326
33.8856
32.6071
30.0156
27.8799
25.6442
23.6329
19.9182
16.7285
13.6712
9.58137
5.57
4.25514
5.80387
7.79334
9.43307
151.866
74.8338
56.9394
48.3232
41.6745
35.6194
29.3519
22.2788
17.2563
15.6324
16.9908
21.6681
25.3429
25.7554
24.8388
23.118
21.7157
20.254
18.9833
17.2467
15.5053
13.8084
11.1299
8.22346
4.52244
2.16608
2.09849
3.4247
5.25428
6.27475
12.4962
9.27297
7.60293
6.64169
5.97524
5.42591
4.9519
4.34351
3.46441
3.0395
3.39273
3.69754
4.04973
4.10214
4.12057
3.97467
3.89508
3.71035
3.51119
3.31275
2.99496
2.72589
2.53453
2.39598
1.46802
0.845781
0.781826
1.13224
1.88619
2.30853
630.091
542.403
340
164.523
55.2616
0.162071
12.8124
24.4829
34.6256
45.2186
57.7647
69.9165
80.127
88.9668
96.9562
102.926
104.077
103.034
102.288
101.703
101.123
100.47
99.6727
98.6843
97.4606
96.0526
94.2374
93.321
631.051
546.663
391.568
189.828
78.878
1.72849
1.63178
19.0182
31.2086
42.1689
53.9397
66.5271
77.3576
85.7758
92.8569
99.3847
103.873
104.415
103.615
102.976
102.37
101.642
100.729
99.5894
98.1976
96.5561
94.7185
92.6036
91.2741
632.8
554.288
443.556
266.842
141.194
40.7124
18.3553
25.0772
37.6607
49.3561
60.7459
73.029
84.3811
92.4003
97.449
101.317
104.364
105.715
105.065
104.848
104.284
103.448
102.253
100.716
98.8271
96.6727
94.2772
91.7135
89.0904
87.094
634.904
563.341
466.828
344.009
213.864
123.01
70.9521
65.045
71.038
79.0733
88.0182
97.618
105.539
109.981
111.62
111.996
110.943
108.237
106.309
107.022
106.009
104.353
102.114
99.4753
96.5625
93.3952
90.1097
86.759
83.5851
80.8338
636.934
572.22
489.179
389.805
292.348
199.267
152.046
132.23
125.679
124.666
126.054
128.543
130.492
130.731
129.326
126.822
120.983
113.75
110.07
109.964
107.096
103.662
99.9358
96.0752
91.9527
87.7987
83.8025
79.8076
76.3301
72.7076
638.323
578.629
505.731
423.361
342.334
275.62
229.543
201.028
183.315
171.46
163.168
157.203
152.28
147.586
142.865
137.87
131.279
123.512
116.78
110.823
105.43
100.178
94.9909
89.8688
84.8558
80.0008
75.41
71.4019
67.5051
63.5301
638.527
580.649
513.541
441.91
372.57
312.898
267.125
234.182
210.559
192.942
179.332
168.595
159.732
152.187
145.494
138.907
131.552
123.298
115.028
107.225
100.004
93.3326
87.1121
81.3064
75.926
70.974
66.3722
62.3699
58.1159
54.1079
636.972
576.524
510.476
444.298
382.395
328.429
284.388
249.82
222.887
201.611
184.566
170.806
159.591
150.313
142.278
134.566
126.333
117.31
108.021
99.1294
91.0046
83.7749
77.3491
71.6487
66.5767
62.0444
57.7904
53.8519
49.3971
44.9442
632.842
564.092
494.443
429.769
372.313
322.906
281.606
247.688
219.997
197.328
178.739
163.598
151.393
141.528
133.128
125.045
116.335
106.807
97.1125
87.9847
79.9244
73.0811
67.2753
62.3407
58.0417
54.2214
50.381
46.238
41.064
35.9856
624.648
540.026
462.724
397.507
343.394
298.362
260.708
229.113
202.6
180.441
162.116
147.301
135.672
126.615
119.013
111.394
102.79
93.3013
83.8563
75.3954
68.4351
62.7865
58.1594
54.3346
50.8947
47.196
42.4534
37.8549
32.2512
26.8885
609.293
498.998
412.096
347.124
297.434
257.814
225.005
197.126
173.31
153.217
136.683
123.682
114.061
107.101
101.29
94.7687
86.8308
78.087
69.9572
63.3346
58.1042
53.9451
50.5175
47.7131
44.9166
39.4209
33.8644
27.5163
21.0241
16.0148
579.61
432.996
339.838
279.765
237.638
205.382
178.8
155.776
135.747
118.863
105.31
95.3389
88.9138
85.0349
81.5664
76.5189
70.016
63.1436
57.5294
53.0227
49.3927
46.4013
44.0275
41.8396
39.1214
32.5822
25.4449
16.94
11.2368
9.53553
517.859
333.159
247.113
200.13
169.497
146.5
127.203
109.715
94.1148
81.2223
71.6392
65.7156
63.296
62.8989
61.8013
58.7508
54.3853
50.3693
47.0285
44.0494
41.5619
39.395
37.5214
35.5155
32.1596
25.717
16.3271
8.20547
5.84529
6.51083
383.47
201.286
144.989
118.297
101.106
87.7942
75.8509
64.086
53.354
45.1082
40.2083
38.9375
40.3388
42.862
43.6967
42.7073
40.8587
38.8405
36.9143
34.8929
32.927
31.1014
29.3763
26.9641
22.9794
17.5941
7.68589
3.42011
3.31264
5.15721
151.865
74.9081
57.2232
48.7465
42.3205
36.8204
31.1917
25
19.3047
15.974
15.7097
17.8988
22.0531
24.7737
25.78
25.5739
25.0482
24.1866
23.1537
21.8558
20.4031
18.9272
17.2869
14.4691
10.8029
6.6628
3.39827
1.40746
2.03232
3.98622
12.4961
9.27418
7.60636
6.64889
5.99057
5.46553
5.0003
4.53348
3.81046
3.21895
3.02289
3.38938
3.75975
4.00058
4.02681
3.99758
3.94823
3.83895
3.6948
3.52594
3.33121
3.13422
2.92029
2.72423
2.50038
2.15422
1.85921
0.768285
1.14468
1.78219
633.159
555.988
449.348
319.963
170.637
69.1687
37.2802
47.4811
54.4443
60.8113
66.0549
71.1031
77.1741
83.8274
90.2349
96.0766
100.692
103.094
103.918
104.478
103.998
103.471
102.842
102.095
101.203
100.141
98.8776
97.4635
95.7015
94.8689
633.949
559.413
458.174
334.202
192.056
87.6592
50.8856
59.4759
64.315
69.6366
74.5061
79.613
85.4121
91.1309
96.1752
100.468
103.515
104.48
104.7
105.472
104.995
104.368
103.551
102.544
101.337
99.9248
98.3013
96.5171
94.4933
93.2945
635.325
565.284
472.215
355.244
232.797
141.617
98.9512
87.3701
86.7695
89.2496
92.617
96.8285
101.308
104.979
107.5
109.186
109.126
107.403
106.456
107.5
106.86
105.879
104.564
102.964
101.109
99.0118
96.7409
94.3284
91.852
90.0462
636.94
572.188
488.936
389.101
291.003
197.101
148.651
127.527
119.689
117.33
117.352
118.778
120.458
121.29
121.006
120.027
116.595
111.714
109.325
110.561
109.228
107.38
105.123
102.545
99.7552
96.8011
93.7441
90.6524
87.6165
85.1012
638.388
578.513
504.348
419.289
335.326
254.229
202.329
173.344
157.978
149.377
144.444
141.563
139.535
137.35
134.594
131.467
126.281
118.791
114.474
114.146
111.12
107.724
104.103
100.389
96.6983
92.8695
89.1489
85.4893
81.9122
78.6943
639.222
582.546
515.067
441.038
368.368
306.119
259.198
226.584
204.039
187.875
175.888
166.534
159.156
152.73
146.898
141.388
135.201
128.128
121.628
115.856
110.624
105.63
100.774
96.0304
91.4076
86.9315
82.7833
78.8927
75.1781
71.2025
638.978
582.691
518.549
451.478
386.981
330.434
284.973
250.34
224.196
204.081
188.258
175.551
165.177
156.48
149.006
142.171
135.228
127.816
120.407
113.368
106.791
100.646
94.9115
89.5501
84.5167
79.831
75.4619
71.6499
67.4944
63.273
637.112
577.282
512.63
448.745
389.47
337.497
294.189
259.279
231.413
209.031
190.883
176.072
163.939
153.922
145.447
137.811
130.297
122.492
114.555
106.848
99.6382
93.0699
87.1114
81.7131
76.8332
72.4281
68.2973
64.4527
60.0505
55.0254
632.799
564.099
494.952
431.341
375.268
327.122
286.629
253.029
225.281
202.343
183.371
167.752
155.015
144.673
136.087
128.41
120.844
112.987
105.01
97.3065
90.2568
83.9674
78.4353
73.5783
69.3353
65.356
61.721
57.6827
52.6277
46.0846
624.532
539.721
462.521
397.782
344.438
300.275
263.412
232.442
206.341
184.377
166.034
150.964
138.885
129.375
121.706
114.832
107.874
100.508
93.0754
86.1054
79.8851
74.4936
69.8983
65.9056
62.2473
58.9064
55.2978
50.8195
44.0497
35.471
609.181
498.687
411.796
347.094
297.921
258.996
226.976
199.891
176.718
156.996
140.509
127.173
116.9
109.294
103.487
98.1653
92.4544
86.2478
80.1297
74.514
69.6432
65.4811
61.7817
58.663
55.6667
52.546
48.3634
42.7946
32.6611
23.1016
579.543
432.834
339.744
279.909
238.22
206.598
180.832
158.734
139.46
122.914
109.226
98.5728
91.0518
86.2265
83.0092
79.8062
75.9611
71.6282
67.3153
63.4255
59.8785
56.7427
54.0563
51.5182
48.6932
45.0617
39.9356
32.0937
18.4756
12.3137
517.841
333.151
247.258
200.519
170.306
147.914
129.467
113.054
98.2443
85.444
75.311
68.1062
64.0629
62.4906
62.1737
61.3445
59.8224
57.52
54.9519
52.4498
50.069
47.8061
45.6668
43.3656
40.1011
35.6075
29.084
17.5448
7.94109
6.41329
383.472
201.326
145.232
118.765
101.975
89.2067
78.1113
67.4858
57.4354
48.7154
42.6952
39.3804
38.8061
40.5062
42.4697
43.6989
43.8661
43.0542
41.7892
40.255
38.5813
36.7919
34.9924
32.5885
28.6963
23.4463
15.3812
6.1677
3.56965
3.88671
151.864
74.9157
57.4093
49.0897
42.9976
37.8592
32.9052
27.6344
22.2826
17.7729
15.6165
15.8812
18.2279
21.3427
23.5619
24.7694
25.2241
25.0167
24.4305
23.5815
22.5301
21.2445
20.0049
17.6544
14.012
9.44045
5.07627
2.50943
1.62275
2.76585
12.496
9.27566
7.61016
6.65336
6.00688
5.5042
5.05364
4.64112
4.13597
3.44446
3.09457
3.03316
3.319
3.61149
3.75397
3.86647
3.79057
3.76295
3.65498
3.54075
3.41339
3.25876
3.10028
2.89841
2.67842
2.41124
2.13961
1.15313
0.946266
1.56709
635.784
567.813
480.138
373.893
270.713
179.165
130.406
127.564
119.41
114.707
111.337
109.156
108.297
108.583
109.671
111.023
111.122
109.796
109.439
108.638
107.816
106.85
105.812
104.706
103.517
102.228
100.809
99.292
97.5406
96.6898
636.341
570.163
485.707
384.713
285.966
194.296
144.035
140.695
130.548
124.062
119.879
117.152
115.749
115.31
115.425
115.552
114.682
112.162
111.202
110.02
109.01
107.857
106.603
105.249
103.785
102.204
100.491
98.6709
96.7004
95.5398
637.296
574.171
494.991
402.408
311.522
237.477
190.954
165.113
150.618
141.158
135.042
130.94
128.254
126.382
124.881
123.185
120.847
116.637
114.542
112.637
111.165
109.547
107.796
105.912
103.895
101.76
99.4984
97.173
94.8204
93.1342
638.38
578.768
505.737
422.83
340.834
272.558
224.742
194.624
175.61
162.975
153.82
147.494
142.756
138.923
135.468
132.096
128.193
122.666
118.947
116.162
113.726
111.267
108.695
106.004
103.204
100.351
97.45
94.5932
91.7255
89.402
639.267
582.685
515.233
441.081
368.087
305.216
257.629
224.419
201.437
185.037
172.932
163.547
156.346
150.331
144.993
140.117
135.069
128.995
123.765
119.536
115.668
112.018
108.368
104.712
101.08
97.6568
94.16
90.7909
87.4126
84.4261
639.594
584.586
520.976
453.433
387.812
330.086
283.849
248.985
223.03
203.388
188.193
176.124
166.378
158.257
151.247
145.038
138.984
132.549
126.379
120.749
115.542
110.665
106.029
101.565
97.2547
93.1434
89.2133
85.738
82.2571
78.399
638.958
583.098
520.775
457.195
396.853
343.447
299.09
263.777
236.03
214.07
196.463
182.15
170.407
160.65
152.393
145.161
138.382
131.6
124.915
118.504
112.455
106.796
101.497
96.5285
91.8594
87.5221
83.4144
79.8004
76.0691
71.669
636.834
576.623
512.49
450.245
393.241
343.309
301.172
266.505
238.261
215.21
196.295
180.7
167.821
157.15
148.208
140.463
133.337
126.378
119.49
112.772
106.401
100.479
95.0258
90.0167
85.413
81.2832
77.302
73.4466
69.2727
64.1408
632.396
562.907
493.587
430.6
375.722
328.891
289.454
256.514
229.076
206.2
187.117
171.246
158.141
147.397
138.541
130.969
124.049
117.317
110.64
104.145
98.0297
92.4053
87.3159
82.6762
78.5426
74.5688
70.891
66.9221
62.1441
55.17
624.118
538.45
460.85
396.287
343.592
300.332
264.408
234.276
208.84
187.327
169.202
154.103
141.756
131.85
123.924
117.276
111.195
105.222
99.2979
93.5673
88.2351
83.378
79.0519
74.9882
71.2591
67.8505
64.0269
59.672
53.338
43.6316
608.84
497.659
410.431
345.791
297.039
258.809
227.645
201.473
179.125
160.006
143.818
130.422
119.72
111.485
105.279
100.26
95.6617
91.0395
86.4323
81.9268
77.8054
73.9456
70.3034
66.9936
63.7741
60.3679
56.1834
50.7166
41.0382
29.2524
579.323
432.209
338.967
279.22
237.883
206.861
181.898
160.757
142.38
126.452
112.953
101.998
93.6669
87.7859
83.9839
81.1417
78.5423
75.7433
72.8579
69.7702
66.7974
63.932
61.162
58.4109
55.4246
51.4497
46.4248
38.7288
24.6851
14.9968
517.742
332.903
247.027
200.425
170.554
148.719
131.025
115.608
101.734
89.4801
79.2254
71.3232
65.8898
62.7275
61.6622
61.2882
60.8495
59.933
58.5852
56.9135
55.0216
52.9545
50.7952
48.3866
45.007
40.4158
34.0338
22.6626
9.91913
6.46251
383.448
201.279
145.296
118.976
102.53
90.2814
79.8383
70.1675
60.9995
52.699
46.0009
41.3087
38.8695
38.737
40.1631
41.6681
42.8256
43.2153
42.9664
42.1931
41.0283
39.5069
37.8551
35.5878
31.8283
26.5605
18.8609
7.81384
4.07236
3.87643
151.861
74.9084
57.5171
49.3056
43.5134
38.7754
34.2045
29.6119
24.9634
20.595
17.2167
15.5777
15.9499
17.8412
20.3903
21.9897
23.0731
23.7208
23.7804
23.4366
22.7976
21.8107
20.8767
18.9573
15.5741
10.9713
5.99173
2.77544
1.60553
2.65013
12.4959
9.27713
7.61108
6.65734
6.01801
5.52861
5.10488
4.70805
4.32281
3.8441
3.28211
3.01197
2.98121
3.13718
3.35274
3.4047
3.52258
3.4859
3.51012
3.43803
3.34741
3.23218
3.11294
2.93919
2.7244
2.5183
2.19071
1.18585
0.98175
1.55073
637.11
574.581
499.275
414.794
331.809
263.684
216.069
184.202
165.262
152.589
142.905
135.766
130.485
126.774
124.32
122.687
120.908
118.836
116.919
114.971
112.878
111.112
109.424
107.785
106.166
104.54
102.877
101.177
99.3966
98.4365
637.461
576.03
502.549
420.836
340.627
274.12
226.401
193.624
173.512
159.697
149.39
141.629
135.902
131.683
128.649
126.269
123.905
121.143
118.661
116.378
114.026
112.059
110.164
108.309
106.463
104.606
102.711
100.778
98.8192
97.6067
638.05
578.475
508.064
430.962
355.449
290.79
243.022
210.168
188.075
172.351
160.793
151.791
145.118
139.927
135.837
132.291
128.967
125.166
121.766
118.868
116.019
113.616
111.284
108.99
106.7
104.407
102.084
99.7626
97.4856
95.8334
638.682
581.158
514.257
442.461
372.46
311.554
264.343
230.201
205.842
187.993
174.485
164.029
155.82
149.297
143.87
139.074
134.679
129.898
125.466
121.76
118.293
115.15
112.17
109.246
106.337
103.501
100.642
97.9507
95.2114
93.006
639.108
583.141
519.28
452.327
387.69
330.705
284.7
249.633
223.318
203.32
187.809
175.532
165.672
157.607
150.807
144.865
139.492
133.987
128.722
124.039
119.761
115.785
112.095
108.438
104.796
101.541
98.0984
95.0986
91.9115
89.0919
639.036
583.378
521.266
457.861
397.615
344.213
299.838
264.548
236.913
215.173
197.854
183.849
172.408
162.912
154.889
147.961
141.728
135.68
129.863
124.411
119.332
114.582
110.126
105.88
101.801
98.0544
94.2778
91.0347
87.7688
84.0937
638.108
580.681
518.357
456.761
399.599
349.185
306.61
271.741
243.542
220.711
202.099
186.804
174.149
163.601
154.717
147.093
140.303
133.921
127.797
121.936
116.391
111.176
106.283
101.675
97.3276
93.2588
89.3613
85.9493
82.388
78.1053
635.822
573.517
508.492
446.9
391.63
343.695
303.136
269.384
241.497
218.446
199.326
183.406
170.136
159.068
149.796
141.9
134.944
128.511
122.363
116.447
110.817
105.514
100.553
95.9229
91.6163
87.5906
83.6629
80.0689
76.0183
70.7946
631.356
559.642
489.064
426.044
372.068
326.567
288.453
256.59
229.932
207.577
188.792
173.023
159.852
148.923
139.87
132.264
125.642
119.562
113.781
108.224
102.934
97.9607
93.3155
88.9807
85.043
81.1824
77.2805
73.4532
68.6962
61.4106
623.173
535.498
456.696
391.871
339.659
297.324
262.497
233.453
208.978
188.237
170.65
155.828
143.499
133.403
125.218
118.506
112.77
107.548
102.605
97.8373
93.291
89.035
84.9986
81.0946
77.4613
73.89
70.0253
65.5057
59.1274
48.8713
608.092
495.382
407.27
342.398
293.949
256.402
226.156
201.014
179.674
161.401
145.791
132.64
121.834
113.202
106.479
101.267
96.9791
93.1099
89.4854
85.8822
82.3726
78.8874
75.5619
72.2975
69.1114
65.3863
61.1262
55.3547
45.6516
33.0089
578.83
430.788
337.059
277.201
236.099
205.613
181.434
161.252
143.865
128.758
115.75
104.853
96.1472
89.5103
84.715
81.5166
79.1032
76.9521
74.8159
72.5532
70.1829
67.6934
65.1053
62.4103
59.26
55.267
50.0308
41.9081
27.6709
17.1776
517.503
332.266
246.22
199.61
169.958
148.584
131.572
117.037
104.115
92.6377
82.7029
74.5148
68.2571
63.8298
61.4651
60.4594
60.0355
59.6362
58.9808
57.9941
56.677
54.998
53.0628
50.809
47.3559
42.7592
36.171
24.2745
11.1676
7.51571
383.386
201.113
145.136
118.871
102.652
90.8227
80.9587
72.0524
63.7454
56.1683
49.5564
44.021
40.3853
38.4928
38.3858
39.2968
40.414
41.2747
41.614
41.5027
40.9236
39.8081
38.5157
36.3653
32.869
27.5725
20.0823
7.96401
4.05871
3.96562
151.857
74.8879
57.5585
49.4137
43.828
39.4272
35.2607
31.1554
27.1186
23.2157
19.7151
17.0678
15.8647
15.9229
17.1938
19.0136
20.3316
21.4018
21.7655
22.0706
21.8515
21.1955
20.5796
18.8244
15.7821
11.2186
6.07641
2.29065
1.73967
3.1805
12.4959
9.27796
7.61128
6.65835
6.02258
5.54341
5.13831
4.76696
4.41354
4.05088
3.65168
3.20604
2.97788
2.89982
2.9526
3.07985
3.09421
3.14509
3.14355
3.20605
3.15506
3.10688
3.01779
2.8792
2.69464
2.53857
2.07245
0.993388
1.21391
1.62924
636.449
574.141
504.502
432.404
363.56
304.317
258.083
223.673
199.184
181.189
167.316
156.567
147.925
141.326
136.256
132.34
128.972
125.848
122.956
120.217
117.482
114.836
112.538
110.376
108.323
106.351
104.428
102.525
100.712
99.587
636.645
574.939
506.256
435.551
368.217
310.023
264.099
229.528
204.558
186
171.699
160.54
151.609
144.658
139.231
134.899
131.123
127.635
124.319
121.36
118.371
115.593
113.11
110.776
108.551
106.406
104.31
102.237
100.283
98.9583
636.962
576.247
509.169
440.824
376.061
319.541
274.229
239.682
213.948
194.448
179.345
167.421
157.908
150.283
144.204
139.162
134.723
130.629
126.714
123.226
119.875
116.786
113.937
111.273
108.717
106.248
103.833
101.476
99.2688
97.5825
637.262
577.552
512.239
446.596
384.874
330.716
286.392
251.749
225.155
204.581
188.41
175.513
165.155
156.635
149.688
143.815
138.623
133.873
129.307
125.162
121.403
117.844
114.48
111.384
108.389
105.514
102.701
100.054
97.4743
95.3163
637.359
578.174
514.225
450.977
392.173
340.489
297.435
262.899
235.629
214.049
196.798
182.848
171.467
162.078
154.151
147.479
141.598
136.242
131.122
126.39
122.032
117.96
114.213
110.596
107.136
103.878
100.67
97.6311
94.7789
92.0614
637.016
577.292
513.727
452.064
395.592
346.146
304.498
270.391
242.814
220.517
202.373
187.483
175.169
164.9
156.232
148.841
142.392
136.549
131.045
125.876
121.054
116.528
112.28
108.262
104.422
100.925
97.3585
94.2616
91.1766
87.7009
635.919
573.88
509.18
447.952
393.053
345.482
305.304
271.965
244.529
221.955
203.299
187.796
174.848
163.985
154.811
146.981
140.187
134.07
128.375
123.003
117.95
113.177
108.678
104.429
100.399
96.6229
92.9088
89.6293
86.0998
82.1233
633.595
566.507
498.661
436.628
382.639
336.74
298.209
266.084
239.362
217.092
198.463
182.824
169.672
158.606
149.279
141.352
134.524
128.429
122.803
117.506
112.51
107.764
103.278
99.0452
95.0544
91.2477
87.4628
83.9919
80.0483
74.8285
629.235
552.975
479.612
415.817
362.541
318.52
282.091
251.797
226.458
205.15
187.166
171.961
159.131
148.353
139.325
131.728
125.262
119.559
114.342
109.447
104.825
100.404
96.2083
92.2971
88.5238
84.8122
80.9987
77.0867
72.422
65.027
621.307
529.722
448.567
382.986
331.172
289.911
256.455
228.82
205.651
186.036
169.359
155.189
143.236
133.263
125.009
118.183
112.546
107.66
103.238
99.09
95.2114
91.3418
87.6581
84.0737
80.6891
77.0496
73.1928
68.5739
62.1985
51.6586
606.615
490.958
401.172
335.743
287.539
250.761
221.585
197.637
177.489
160.305
145.571
133.007
122.453
113.761
106.714
101.156
96.7784
93.102
89.8299
86.7406
83.7372
80.7207
77.677
74.6339
71.4575
67.7905
63.468
57.5101
47.7001
34.8397
577.837
427.973
333.278
273.085
232.135
202.182
178.802
159.595
143.271
129.149
116.892
106.408
97.7247
90.6562
85.2135
81.3533
78.5576
76.3839
74.4852
72.6233
70.6794
68.5525
66.2153
63.8075
60.5116
56.6117
51.3176
42.7674
28.5867
18.4847
517.004
330.948
244.469
197.685
168.132
147.128
130.72
116.986
104.997
94.352
84.9923
77.0121
70.4162
65.23
61.7945
59.7621
58.6772
58.0681
57.5482
56.8854
55.9551
54.6194
53.0035
50.8542
47.5735
43.0489
36.3418
23.7213
11.6136
7.94898
383.254
200.752
144.639
118.316
102.199
90.6703
81.2932
73.009
65.4944
58.5659
52.3481
46.8147
42.4762