/*--------------------------------*- C++ -*----------------------------------*\
  =========                 |
  \\      /  F ield         | OpenFOAM: The Open Source CFD Toolbox
   \\    /   O peration     | Website:  https://openfoam.org
    \\  /    A nd           | Version:  10
     \\/     M anipulation  |
\*---------------------------------------------------------------------------*/
FoamFile
{
    format      ascii;
    class       volScalarField;
    location    "200";
    object      omega;
}
// * * * * * * * * * * * * * * * * * * * * * * * * * * * * * * * * * * * * * //

dimensions      [0 0 -1 0 0 0 0];

internalField   nonuniform List<scalar> 
27507
(
0.558809
0.694693
1.2166
7.7468
3.63971
3.51626
3.08818
2.68181
2.44847
2.34715
2.32632
2.34245
2.37483
2.30545
2.07423
1.91787
1.7858
1.6771
1.58966
1.52127
1.46939
1.43147
1.40328
1.38675
1.35712
0.557167
0.674243
1.07059
5.14609
4.946
3.73694
2.84662
2.43505
2.2758
2.23622
2.2535
2.30158
2.35349
2.27673
2.03305
1.88323
1.75966
1.66083
1.58354
1.52476
1.48139
1.45044
1.42759
1.41381
1.38621
0.555006
0.650711
0.893524
2.52174
28.7538
5.91924
3.3923
2.43604
2.08836
1.99375
2.00431
2.06632
2.15834
2.24823
2.17584
1.93646
1.80626
1.70533
1.6299
1.575
1.5354
1.50834
1.49
1.47577
1.46634
1.44106
0.551808
0.632778
0.823409
1.43992
5.14643
73.2032
65.306
6.99623
3.81396
2.59246
2.02531
1.79206
1.72697
1.7432
1.81221
1.92483
2.04627
1.99637
1.79088
1.70157
1.64468
1.60758
1.58372
1.5711
1.56528
1.56152
1.55519
1.55055
1.527
0.548203
0.613632
0.744008
1.04389
1.78275
3.75274
5.40353
3.64951
2.78885
2.22652
1.85518
1.6219
1.4971
1.44831
1.44896
1.49484
1.62122
1.74515
1.7653
1.6417
1.62373
1.62093
1.62713
1.63942
1.6551
1.66901
1.6743
1.67247
1.66865
1.64695
0.545186
0.597992
0.689981
0.854095
1.11243
1.55074
1.8639
1.66534
1.57983
1.48203
1.391
1.31898
1.27286
1.25469
1.26071
1.29253
1.36787
1.46004
1.52754
1.57745
1.6233
1.67412
1.72534
1.77307
1.81038
1.83134
1.83378
1.8264
1.8185
1.80536
0.543483
0.588908
0.65971
0.766264
0.910655
1.06563
1.18721
1.25781
1.26912
1.25771
1.2348
1.21364
1.20173
1.20391
1.21991
1.25952
1.33336
1.43509
1.54491
1.65273
1.7556
1.85165
1.93632
1.99931
2.03222
2.03584
2.02409
2.011
2.00741
2.01248
0.543632
0.587869
0.650264
0.732666
0.832947
0.938208
1.03
1.09777
1.1378
1.15985
1.17078
1.17658
1.18502
1.20264
1.23751
1.30087
1.40548
1.55437
1.72867
1.90036
2.05058
2.16612
2.23929
2.26997
2.26979
2.2536
2.23877
2.23638
2.24559
2.26923
0.546309
0.596811
0.661555
0.737919
0.822724
0.909334
0.989046
1.05565
1.10642
1.14396
1.17209
1.19602
1.22181
1.25781
1.31664
1.41856
1.5932
1.84571
2.12268
2.34121
2.4696
2.52125
2.53024
2.52061
2.50714
2.49494
2.49284
2.50219
2.52485
2.55624
0.552837
0.620051
0.698525
0.78174
0.866263
0.948983
1.02624
1.09496
1.15333
1.20201
1.24334
1.28096
1.32148
1.37649
1.46898
1.65483
1.99198
2.41418
2.71831
2.80943
2.8136
2.79775
2.78291
2.77801
2.7804
2.77472
2.7799
2.79092
2.81676
2.84242
0.566284
0.667588
0.775032
0.877341
0.972091
1.06009
1.14208
1.21758
1.28523
1.34505
1.39881
1.44858
1.50241
1.5826
1.75768
2.15718
2.72728
3.10062
3.14963
3.09483
3.07071
3.07113
3.06979
3.07718
3.08889
3.07941
3.07484
3.07421
3.09158
3.108
0.59487
0.764425
0.925178
1.06049
1.17362
1.27299
1.36575
1.45393
1.53555
1.61023
1.67891
1.73802
1.8031
1.95285
2.35864
3.05717
3.48177
3.45976
3.36276
3.35731
3.39017
3.40904
3.4095
3.412
3.40227
3.37886
3.35836
3.34851
3.36025
3.37596
0.665327
0.982727
1.23871
1.42053
1.55467
1.66739
1.77744
1.88751
1.99213
2.0899
2.17356
2.2235
2.31992
2.67146
3.4101
3.81147
3.72244
3.64729
3.66437
3.76525
3.7898
3.80289
3.8054
3.77151
3.73115
3.68855
3.65723
3.63761
3.65904
3.67633
0.897295
1.58579
1.99277
2.20799
2.34208
2.45944
2.5978
2.73453
2.86949
2.99166
3.05819
3.0501
3.21611
3.77598
4.03238
3.96351
3.88763
4.03589
4.09965
4.26877
4.24615
4.25713
4.20618
4.15762
4.0833
4.01816
3.99667
3.98046
3.99616
4.01423
2.25168
3.91058
4.29585
4.3409
4.3495
4.41784
4.55755
4.58848
4.67957
4.767
4.62119
4.29816
4.10362
4.08098
3.96225
3.98439
4.16701
4.32117
4.38852
4.5634
4.48949
4.45785
4.41243
4.38973
4.36994
4.3556
4.36686
4.38816
4.41808
4.44285
25.3727
18.8313
15.3908
13.335
11.8343
10.5348
9.14772
7.44964
6.85541
7.37748
7.68612
7.47171
5.74471
4.98292
3.43467
3.50188
3.49284
3.54996
3.67773
3.72042
3.82801
3.97918
4.13636
4.29308
4.44425
4.58728
4.72367
4.84351
4.96151
5.01851
0.557139
0.674544
1.07433
5.33804
4.74311
3.87833
3.15942
2.68562
2.43544
2.32776
2.3032
2.31843
2.35106
2.27417
2.04056
1.89101
1.76383
1.65864
1.57351
1.50647
1.45519
1.41741
1.38918
1.37275
1.34307
0.55584
0.660633
0.977186
3.81185
5.71778
3.9174
2.90419
2.44794
2.26977
2.22057
2.23249
2.27746
2.3291
2.24532
1.99878
1.85454
1.73551
1.63976
1.56433
1.50657
1.4635
1.43246
1.40956
1.39567
1.36882
0.553759
0.642562
0.852758
2.20425
63.3197
18.1347
5.63957
3.38497
2.46198
2.10354
1.99678
1.99862
2.05291
2.13923
2.22675
2.14775
1.90389
1.77759
1.67976
1.60577
1.55147
1.51175
1.48412
1.4651
1.45067
1.44109
1.41686
0.550708
0.626893
0.795998
1.29532
3.84644
54.0171
27.0936
5.99027
3.59123
2.54948
2.0268
1.80003
1.73295
1.74537
1.80888
1.91495
2.03194
1.97489
1.763
1.67396
1.61579
1.57813
1.55293
1.53859
1.5312
1.52641
1.52026
1.51595
1.49395
0.547348
0.609166
0.727156
0.971482
1.60124
3.09397
4.33144
3.17354
2.5809
2.13242
1.81664
1.60853
1.49325
1.44748
1.44825
1.49027
1.60823
1.72919
1.74859
1.61528
1.59253
1.58478
1.58714
1.59522
1.60768
1.61954
1.62518
1.62498
1.62365
1.60363
0.544596
0.595096
0.681093
0.828804
1.05773
1.44853
1.73113
1.56772
1.5147
1.44015
1.366
1.30441
1.26389
1.24781
1.25361
1.28279
1.35156
1.43754
1.49993
1.54299
1.58058
1.62164
1.66411
1.70419
1.73736
1.75925
1.76848
1.76714
1.76503
1.75269
0.543108
0.587148
0.654905
0.754867
0.888665
1.03168
1.14758
1.21975
1.23921
1.23425
1.21894
1.20188
1.19225
1.19477
1.20986
1.24614
1.31256
1.40351
1.50026
1.59379
1.68222
1.76476
1.83836
1.89649
1.93378
1.95012
1.95195
1.94853
1.95282
1.95894
0.543409
0.586842
0.647629
0.726996
0.822781
0.923375
1.01241
1.07973
1.12161
1.14581
1.15887
1.16612
1.1749
1.19142
1.22302
1.27906
1.36953
1.4951
1.64205
1.78854
1.92182
2.03205
2.11173
2.15751
2.17717
2.17994
2.17884
2.18705
2.21073
2.24417
0.546183
0.59622
0.660066
0.734842
0.817376
0.90156
0.979455
1.04515
1.09593
1.1338
1.1622
1.18563
1.20976
1.24234
1.29422
1.38068
1.5206
1.71826
1.9469
2.15486
2.30252
2.38685
2.42713
2.44566
2.45438
2.45942
2.47243
2.50744
2.55871
2.60937
0.552764
0.619691
0.697586
0.779783
0.862837
0.943865
1.0196
1.08721
1.14485
1.19277
1.23287
1.26827
1.30502
1.35372
1.43118
1.57297
1.82058
2.15413
2.45843
2.62907
2.69905
2.73045
2.75159
2.77693
2.79938
2.81757
2.85174
2.91334
2.98159
3.0231
0.566232
0.667296
0.774215
0.875572
0.96889
1.05507
1.1352
1.20924
1.27565
1.33366
1.38456
1.43012
1.47788
1.54428
1.67317
1.95021
2.38712
2.78554
2.96852
3.01629
3.0496
3.10235
3.15031
3.20335
3.23666
3.26505
3.3157
3.38099
3.42622
3.42655
0.594814
0.764027
0.924
1.05787
1.16881
1.26523
1.35484
1.44115
1.5212
1.59215
1.65532
1.7085
1.76371
1.86858
2.13464
2.64884
3.11802
3.28238
3.31117
3.38231
3.4811
3.59553
3.65909
3.73438
3.76468
3.78886
3.8183
3.84156
3.83684
3.78691
0.665242
0.981877
1.2362
1.41486
1.54451
1.6509
1.7544
1.8634
1.96695
2.05543
2.12998
2.17654
2.24205
2.45128
2.97049
3.43365
3.54762
3.57533
3.70612
3.91464
4.05104
4.22581
4.2714
4.35425
4.37434
4.35141
4.34494
4.28367
4.20588
4.14836
0.897144
1.58323
1.98603
2.19242
2.3157
2.4166
2.54
2.6871
2.82241
2.9208
2.98141
2.97986
3.04773
3.39708
3.70964
3.76223
3.80513
4.01177
4.30555
4.65048
4.80695
4.95465
4.99548
5.04654
5.04008
4.95154
4.85636
4.69284
4.60694
4.53781
2.2513
3.89966
4.27456
4.28588
4.26827
4.28686
4.40798
4.51415
4.5925
4.643
4.5798
4.30418
4.05893
3.99884
3.93837
4.03785
4.29298
4.65385
5.01763
5.30354
5.36612
5.33094
5.37288
5.41286
5.35579
5.24798
5.17739
5.06556
5.03273
5.00681
25.3728
18.842
15.4223
13.3975
11.9408
10.702
9.33321
7.59502
6.68717
7.23291
7.87753
8.20769
7.54786
7.12226
6.50793
6.48214
6.36616
5.98747
5.36938
4.7072
3.58063
3.37959
3.6676
3.84291
4.09908
4.47402
4.88054
5.14172
5.36171
5.46579
0.554898
0.650956
0.897616
2.54876
20.0211
6.32702
4.2285
3.2253
2.66963
2.38579
2.25895
2.22132
2.23011
2.26124
2.18648
1.96557
1.82977
1.71318
1.61581
1.53617
1.47268
1.42343
1.38662
1.35871
1.34276
1.3125
0.553777
0.642716
0.854142
2.20061
84.8077
18.4015
5.96452
3.90924
2.92653
2.44194
2.23184
2.15896
2.15596
2.18975
2.2387
2.15791
1.92355
1.79237
1.68323
1.59451
1.5238
1.46894
1.4273
1.39683
1.37417
1.36062
1.33362
0.551526
0.629933
0.789084
1.48908
6.39158
8.61047
4.59817
3.16344
2.43673
2.09639
1.97172
1.9548
1.98979
2.06095
2.14176
2.06587
1.83048
1.71555
1.62524
1.55576
1.50388
1.46545
1.43788
1.4185
1.40418
1.39469
1.37148
0.548765
0.616576
0.755934
1.09577
2.19784
6.26662
10.3141
6.78369
4.25406
3.0556
2.38233
1.98391
1.78407
1.71389
1.7165
1.7652
1.85522
1.96169
1.90536
1.69732
1.61424
1.55708
1.51958
1.49384
1.47743
1.468
1.46186
1.45654
1.45199
1.43249
0.545868
0.601765
0.703993
0.905112
1.32965
1.99187
2.49362
2.46613
2.19999
1.93428
1.71959
1.5631
1.46862
1.42817
1.42738
1.46012
1.55861
1.67145
1.69049
1.55378
1.52656
1.51393
1.51111
1.51415
1.52157
1.53021
1.53489
1.53616
1.53559
1.52177
0.543574
0.590222
0.667209
0.792878
0.974844
1.18949
1.34847
1.40884
1.40049
1.3643
1.31575
1.27157
1.24049
1.22751
1.23196
1.25522
1.31088
1.38422
1.43692
1.47086
1.49694
1.52453
1.55458
1.58446
1.61129
1.63236
1.64622
1.64871
1.65117
1.64502
0.542457
0.584144
0.646945
0.736677
0.853126
0.980467
1.0872
1.15501
1.18498
1.19166
1.18686
1.17722
1.17132
1.17374
1.18624
1.21532
1.26784
1.34016
1.41624
1.48714
1.55314
1.61396
1.66853
1.71501
1.75055
1.77463
1.7895
1.79431
1.80959
1.81462
0.543022
0.585076
0.643147
0.717465
0.805593
0.898549
0.982414
1.0475
1.09153
1.1192
1.13551
1.14524
1.15444
1.16861
1.19357
1.23675
1.30463
1.3969
1.50253
1.60713
1.70315
1.78617
1.85383
1.90311
1.93442
1.95163
1.96396
1.98139
2.02113
2.05984
0.545964
0.595211
0.657516
0.729559
0.808104
0.887941
0.962262
1.02571
1.07595
1.1141
1.14281
1.16555
1.18696
1.21341
1.2533
1.31715
1.41367
1.54174
1.68749
1.82831
1.94721
2.03617
2.09504
2.12923
2.1463
2.15643
2.17556
2.2272
2.32303
2.41329
0.552638
0.619083
0.696003
0.776447
0.856897
0.934797
1.00744
1.07245
1.12817
1.17445
1.21252
1.24472
1.27569
1.31366
1.37083
1.46348
1.60659
1.79396
1.98966
2.15104
2.25811
2.32073
2.35237
2.36449
2.36914
2.3843
2.43676
2.57638
2.7702
2.90638
0.566146
0.666833
0.772924
0.872747
0.963674
1.04666
1.12309
1.19348
1.25658
1.31112
1.35766
1.3976
1.43615
1.48526
1.56447
1.7083
1.92994
2.18081
2.37942
2.49552
2.55421
2.58331
2.58938
2.58556
2.59061
2.63282
2.77491
3.07413
3.37288
3.48606
0.594732
0.763492
0.922395
1.05427
1.16206
1.25397
1.33775
1.41808
1.49256
1.55734
1.61299
1.65895
1.70128
1.76078
1.88089
2.11473
2.39988
2.61807
2.72068
2.76656
2.78749
2.79555
2.78195
2.77433
2.80087
2.89707
3.22024
3.69716
4.00078
3.9998
0.665146
0.980995
1.2334
1.40864
1.53303
1.63156
1.72369
1.82162
1.91509
1.99258
2.05591
2.09967
2.13295
2.20294
2.3897
2.66626
2.85393
2.92832
2.94532
2.95084
2.93777
2.93169
2.9131
2.92022
3.00278
3.19198
3.75318
4.29625
4.43873
4.32819
0.897044
1.58135
1.9801
2.17976
2.29331
2.37889
2.47551
2.60387
2.71802
2.79949
2.85329
2.85859
2.83314
2.87823
3.01358
3.10843
3.1275
3.12158
3.07858
3.04128
3.00818
3.01064
3.02335
3.07011
3.2778
3.49919
4.01365
4.57106
4.69881
4.47711
2.25135
3.89422
4.26007
4.25667
4.22167
4.21296
4.27038
4.38799
4.40406
4.42635
4.41143
4.2132
3.93598
3.77262
3.67426
3.63608
3.58391
3.49798
3.35231
3.23604
3.17412
3.2387
3.329
3.46191
3.59043
3.53962
4.16984
4.68481
4.72718
4.66645
25.3728
18.8431
15.4312
13.4263
12.006
10.8265
9.64857
8.03164
6.81736
6.79887
7.5691
8.27189
8.5563
8.54541
8.37064
8.18184
7.83543
7.41103
6.94173
6.37567
5.74829
5.32553
4.98964
4.47551
3.54008
2.95742
3.40848
4.36695
4.90556
5.12789
0.551915
0.633427
0.828314
1.45794
5.42244
87.8809
8.28661
4.9052
3.61795
2.93277
2.50109
2.24711
2.11807
2.06915
2.07082
2.09717
2.03363
1.84072
1.72896
1.63031
1.54639
1.4766
1.41998
1.37523
1.34114
1.31474
1.29963
1.26968
0.55081
0.627391
0.799208
1.3057
3.88779
57.4363
33.4387
6.85513
4.36361
3.28967
2.68015
2.31207
2.1163
2.03055
2.01176
2.03132
2.07422
2.00579
1.80051
1.69254
1.60032
1.52395
1.46194
1.41272
1.3747
1.3462
1.32461
1.3117
1.28496
0.548821
0.61686
0.757236
1.0999
2.20835
6.47818
10.7223
7.14316
4.57603
3.36337
2.68338
2.25343
2.00135
1.88335
1.85027
1.86506
1.91641
1.98661
1.92255
1.71494
1.6196
1.54311
1.48321
1.43686
1.40212
1.37612
1.35735
1.34349
1.33437
1.31177
0.546432
0.604722
0.714737
0.941857
1.46413
2.34065
3.57957
3.4681
2.90378
2.43811
2.09682
1.85492
1.70962
1.64636
1.63977
1.67008
1.74038
1.83579
1.78651
1.59417
1.52463
1.47477
1.44026
1.41637
1.39978
1.38909
1.3818
1.37649
1.3717
1.35414
0.544105
0.593146
0.677589
0.824675
1.05232
1.47114
1.77579
1.86695
1.80485
1.68975
1.57431
1.47763
1.41167
1.37968
1.37706
1.39914
1.47339
1.57353
1.59346
1.46373
1.43757
1.42393
1.41798
1.4163
1.41957
1.42372
1.42574
1.4281
1.42456
1.41601
0.542374
0.584568
0.651419
0.753416
0.893306
1.05019
1.18001
1.2521
1.27414
1.26761
1.24706
1.22202
1.20215
1.19307
1.19607
1.21252
1.2527
1.31002
1.35207
1.37805
1.39548
1.41308
1.43219
1.45184
1.47029
1.48591
1.49753
1.49871
1.50204
1.49746
0.541711
0.580709
0.637886
0.7163
0.814584
0.920987
1.01487
1.08147
1.11992
1.13799
1.14346
1.14233
1.14107
1.14365
1.15313
1.17402
1.21141
1.26399
1.31937
1.36997
1.4154
1.45676
1.49438
1.52713
1.55371
1.57323
1.5873
1.58954
1.60473
1.60231
0.542597
0.583128
0.638129
0.706714
0.786178
0.869525
0.946414
1.00874
1.05416
1.08494
1.10468
1.11727
1.12721
1.1389
1.15703
1.18696
1.23301
1.29504
1.36566
1.43577
1.4999
1.55507
1.60073
1.63584
1.66039
1.6752
1.68597
1.69103
1.71964
1.73858
0.545744
0.594179
0.654802
0.723734
0.797619
0.872066
0.941677
1.002
1.05095
1.08894
1.11775
1.13984
1.15866
1.17891
1.20661
1.24869
1.31007
1.38965
1.47809
1.56367
1.63729
1.69472
1.73545
1.76023
1.77258
1.77497
1.77909
1.79387
1.85507
1.92037
0.55253
0.618539
0.694467
0.772984
0.850408
0.92448
0.993124
1.05452
1.10737
1.15128
1.18693
1.21587
1.2412
1.26841
1.3055
1.36213
1.44362
1.54495
1.65075
1.74265
1.80989
1.85199
1.87297
1.87545
1.86981
1.8599
1.86509
1.89867
2.03276
2.18017
0.566082
0.666472
0.771793
0.87003
0.958304
1.03755
1.10939
1.17479
1.23313
1.28322
1.32496
1.35919
1.38878
1.42065
1.46619
1.54004
1.64552
1.76583
1.87088
1.94257
1.98051
1.99174
1.98506
1.96019
1.93291
1.91882
1.93974
2.01999
2.32589
2.58824
0.594672
0.76309
0.921038
1.051
1.15554
1.24249
1.31947
1.39162
1.45822
1.51577
1.56352
1.60133
1.63105
1.66191
1.71243
1.80472
1.92317
2.02844
2.09178
2.11738
2.11504
2.09435
2.0537
2.00635
1.96865
1.96704
2.03178
2.21589
2.79785
3.09552
0.665074
0.980339
1.23101
1.40321
1.52263
1.6131
1.69317
1.77536
1.85501
1.92136
1.97214
2.00688
2.02331
2.03537
2.07492
2.15961
2.23444
2.27031
2.26944
2.24949
2.20831
2.15717
2.09636
2.03742
2.02007
2.04695
2.19637
2.58739
3.27774
3.41027
0.896971
1.58006
1.97471
2.16907
2.27448
2.34431
2.41645
2.51217
2.6038
2.66839
2.70587
2.70996
2.67039
2.60381
2.57202
2.55689
2.53125
2.49246
2.43749
2.37956
2.31719
2.25157
2.18413
2.14511
2.16876
2.27389
2.53758
2.83508
3.50953
3.64041
2.25135
3.89064
4.24276
4.23173
4.18678
4.13568
4.15033
4.2204
4.22653
4.20226
4.19164
4.08692
3.8038
3.56857
3.38571
3.26271
3.15489
3.04907
2.93916
2.83785
2.74747
2.67107
2.61182
2.65369
2.78548
2.93913
3.00466
3.07386
3.63788
3.83896
25.373
18.8428
15.4368
13.4555
12.0702
10.9386
9.89965
8.60919
7.1584
6.53892
6.86649
7.7056
8.26378
8.41538
8.3952
8.308
8.09684
7.80483
7.44198
7.03453
6.59687
6.1636
5.7423
5.27218
4.65073
3.90489
3.21122
2.83033
3.75874
4.34136
0.548349
0.614232
0.745675
1.02825
1.83188
4.04744
6.15558
4.35732
3.46678
2.87581
2.49073
2.22581
2.0304
1.89217
1.80709
1.76946
1.78189
1.82463
1.81615
1.6671
1.58872
1.51587
1.45159
1.39643
1.35039
1.31297
1.28371
1.26045
1.2468
1.21872
0.547472
0.609733
0.729797
0.982589
1.62917
3.24582
4.75388
3.6527
3.07003
2.6213
2.30418
2.07414
1.90617
1.79471
1.73293
1.71421
1.74107
1.79567
1.79016
1.63144
1.55581
1.48815
1.42996
1.38106
1.34098
1.30896
1.28428
1.26504
1.25325
1.22805
0.54594
0.602092
0.705307
0.909772
1.34322
2.04315
2.624
2.66554
2.44162
2.19284
1.98551
1.82103
1.70141
1.62845
1.59641
1.59847
1.64622
1.71743
1.71872
1.55795
1.49176
1.43627
1.39084
1.3542
1.32523
1.30305
1.28619
1.27332
1.26484
1.24343
0.544127
0.593237
0.677965
0.82602
1.05636
1.48455
1.80984
1.92493
1.88008
1.77549
1.6655
1.56858
1.49644
1.45479
1.44224
1.45389
1.51212
1.59496
1.60539
1.4573
1.41043
1.37467
1.34779
1.32807
1.31352
1.30301
1.29544
1.2893
1.28542
1.26846
0.542438
0.585106
0.654008
0.761892
0.913264
1.15557
1.35402
1.46108
1.48118
1.45415
1.40789
1.35977
1.32063
1.29725
1.29187
1.30252
1.34639
1.42494
1.45167
1.35112
1.3341
1.32379
1.31838
1.31588
1.31421
1.31509
1.3151
1.3145
1.31583
1.30344
0.541292
0.579466
0.637301
0.719755
0.826451
0.94376
1.04774
1.1191
1.15719
1.1711
1.16991
1.16245
1.15277
1.14767
1.14942
1.1594
1.18421
1.22286
1.25562
1.27651
1.29023
1.30234
1.31443
1.3264
1.33749
1.34702
1.35196
1.35281
1.35444
1.34914
0.541092
0.577798
0.629999
0.698482
0.781099
0.869489
0.950565
1.01376
1.05662
1.08253
1.0962
1.10241
1.10522
1.10861
1.11537
1.12874
1.15254
1.1871
1.22482
1.25949
1.29024
1.31791
1.34242
1.36343
1.38039
1.39265
1.40087
1.39946
1.409
1.40198
0.542303
0.581693
0.634097
0.697576
0.769141
0.84334
0.912814
0.971388
1.0166
1.04926
1.07166
1.08662
1.09728
1.10704
1.11948
1.13833
1.16672
1.20512
1.24933
1.29377
1.3349
1.3705
1.39963
1.4218
1.43682
1.44499
1.44925
1.44776
1.46249
1.46367
0.54565
0.593645
0.65302
0.719266
0.788828
0.857964
0.922556
0.979161
1.02601
1.06307
1.09139
1.11266
1.12928
1.14447
1.16234
1.18743
1.22294
1.26873
1.3201
1.37086
1.41533
1.45048
1.47514
1.48973
1.49414
1.49472
1.48791
1.48845
1.51463
1.54002
0.552534
0.618462
0.693821
0.770805
0.845467
0.915743
0.980127
1.03739
1.08667
1.1276
1.16048
1.18627
1.20685
1.22563
1.24746
1.27822
1.32113
1.37439
1.4305
1.48073
1.51892
1.54321
1.55341
1.55268
1.54539
1.53062
1.51958
1.52363
1.58253
1.65816
0.566113
0.666533
0.771508
0.868576
0.95449
1.03009
1.09715
1.15705
1.2099
1.25496
1.29177
1.32064
1.34295
1.36251
1.38516
1.41917
1.4668
1.52177
1.5721
1.60863
1.62775
1.631
1.62459
1.60439
1.57939
1.55467
1.5514
1.5705
1.71547
1.86971
0.594686
0.763072
0.920517
1.04905
1.1507
1.23296
1.30319
1.36667
1.42446
1.47433
1.51445
1.54443
1.56437
1.57851
1.59379
1.62322
1.66358
1.7029
1.72874
1.73563
1.72945
1.71113
1.67992
1.64328
1.60927
1.59303
1.61028
1.67815
2.00169
2.23631
0.665058
0.980093
1.2296
1.39936
1.51422
1.59738
1.66612
1.73243
1.79698
1.8525
1.8917
1.91594
1.92155
1.91489
1.90069
1.90289
1.90561
1.90324
1.89128
1.86623
1.8314
1.78984
1.74203
1.69628
1.6719
1.68487
1.76221
1.95904
2.50737
2.71246
0.89694
1.5795
1.97105
2.16075
2.25763
2.31476
2.36451
2.42812
2.49565
2.54945
2.56654
2.56321
2.53406
2.44808
2.35869
2.28406
2.22123
2.16474
2.1107
2.05737
2.00249
1.94636
1.8859
1.84617
1.85821
1.94894
2.17129
2.49381
2.90721
3.07318
2.25136
3.89006
4.23129
4.21105
4.14562
4.07412
4.03556
4.05248
4.05988
4.04033
3.97192
3.88657
3.70194
3.44168
3.24094
3.0791
2.95307
2.84305
2.74655
2.66157
2.58045
2.50694
2.41887
2.4193
2.52962
2.81824
3.01813
2.80884
3.09014
3.42749
25.373
18.8423
15.4419
13.4793
12.1223
11.0455
10.0792
9.08654
7.81204
6.8194
6.37978
6.68935
7.38112
7.87254
8.05166
8.00333
7.935
7.72156
7.47046
7.19418
6.87381
6.53147
6.12703
5.6934
5.15432
4.55331
3.78603
2.75024
3.23036
3.89083
0.545281
0.598327
0.691239
0.860082
1.1344
1.62384
2.03445
1.8749
1.83588
1.7614
1.68611
1.61629
1.55386
1.50181
1.46341
1.44489
1.45747
1.49404
1.49199
1.47082
1.42836
1.38457
1.34254
1.30423
1.27071
1.24235
1.21939
1.20056
1.18904
1.16415
0.544666
0.595368
0.682355
0.834561
1.07323
1.50095
1.85643
1.72135
1.70472
1.65634
1.59528
1.53601
1.48266
1.43968
1.4102
1.40041
1.41736
1.45899
1.46056
1.44049
1.40123
1.36137
1.32375
1.28997
1.2608
1.23644
1.21692
1.2012
1.1911
1.16866
0.543603
0.590326
0.667824
0.795614
0.983256
1.21387
1.40127
1.49426
1.51097
1.49313
1.45562
1.41379
1.37487
1.34455
1.32621
1.3253
1.34493
1.3897
1.3975
1.3815
1.34992
1.31858
1.28977
1.2646
1.24342
1.22609
1.21258
1.20155
1.19404
1.17483
0.542365
0.584515
0.651471
0.754184
0.896364
1.05977
1.2014
1.28801
1.3233
1.32495
1.31142
1.28761
1.26394
1.24556
1.23641
1.23901
1.25788
1.29873
1.31349
1.3049
1.28678
1.26811
1.25154
1.23776
1.22684
1.21804
1.21125
1.20482
1.20131
1.18595
0.54127
0.579364
0.637126
0.719639
0.826821
0.945899
1.05308
1.12859
1.17067
1.18741
1.18784
1.18086
1.16951
1.16043
1.15711
1.16072
1.17524
1.20485
1.22548
1.23013
1.22852
1.22462
1.22162
1.21985
1.2189
1.2163
1.21543
1.21335
1.21416
1.20272
0.540649
0.576235
0.627692
0.696459
0.780713
0.871822
0.95585
1.02104
1.06448
1.0894
1.10079
1.10392
1.10269
1.10094
1.10175
1.10669
1.11927
1.14128
1.16347
1.17992
1.19205
1.20162
1.20987
1.21735
1.22399
1.22893
1.23229
1.22966
1.2299
1.22536
0.540858
0.576446
0.625409
0.686785
0.757897
0.832751
0.902897
0.961098
1.0046
1.03445
1.05328
1.06427
1.07032
1.07429
1.07884
1.0864
1.09958
1.11958
1.14283
1.16543
1.18589
1.20387
1.21948
1.23257
1.24297
1.2499
1.25442
1.2519
1.2549
1.25234
0.542347
0.581599
0.632704
0.692713
0.758327
0.825146
0.887925
0.942184
0.985746
1.01866
1.04225
1.05846
1.06945
1.07772
1.08587
1.09656
1.11209
1.13343
1.15878
1.18526
1.21017
1.23191
1.24966
1.2631
1.27198
1.27485
1.2765
1.2767
1.28648
1.28668
0.54585
0.594279
0.65348
0.718225
0.784623
0.849359
0.909323
0.962005
1.00605
1.04126
1.06831
1.08834
1.10297
1.11436
1.12521
1.13855
1.15671
1.18034
1.20767
1.23543
1.26034
1.28036
1.29434
1.30268
1.30387
1.30363
1.29944
1.30018
1.31907
1.34033
0.552786
0.619399
0.695136
0.771578
0.844369
0.911499
0.971915
1.02497
1.07026
1.10766
1.13739
1.16003
1.17673
1.18953
1.20128
1.21561
1.23503
1.25946
1.28586
1.31045
1.3295
1.34164
1.34542
1.34493
1.33886
1.32756
1.32458
1.33028
1.37522
1.44495
0.56634
0.66746
0.77296
0.869775
0.954146
1.02671
1.08937
1.14385
1.19097
1.2306
1.26243
1.28642
1.30321
1.31488
1.32409
1.33566
1.3519
1.37167
1.39022
1.40447
1.40983
1.40863
1.40205
1.38824
1.37154
1.35807
1.36082
1.38731
1.50452
1.66175
0.594844
0.763777
0.921555
1.04957
1.14917
1.22745
1.29161
1.34699
1.39597
1.43775
1.47079
1.49399
1.50718
1.51264
1.51108
1.51147
1.51436
1.51842
1.51747
1.51414
1.50296
1.48524
1.46251
1.4372
1.41354
1.41133
1.43609
1.51795
1.81163
2.06857
0.665136
0.980454
1.22968
1.39803
1.50928
1.58603
1.64517
1.69772
1.74772
1.791
1.82121
1.83627
1.83651
1.82599
1.79569
1.76429
1.73515
1.70786
1.68043
1.65139
1.61948
1.58584
1.55001
1.51674
1.50282
1.52351
1.60855
1.83261
2.39392
2.62565
0.896961
1.57949
1.96919
2.15561
2.24509
2.29039
2.32378
2.36202
2.40641
2.44188
2.45071
2.4436
2.41465
2.34733
2.24723
2.15071
2.06704
1.99723
1.93763
1.8845
1.83412
1.78797
1.73888
1.70521
1.71762
1.81243
2.03369
2.46708
2.8907
3.04404
2.25137
3.89004
4.2239
4.19722
4.11265
4.01644
3.95589
3.93239
3.92796
3.88113
3.82394
3.72453
3.59425
3.38602
3.14624
2.97421
2.8369
2.73074
2.64043
2.56092
2.4857
2.42357
2.33934
2.32069
2.41254
2.70934
2.99195
2.87297
3.11376
3.35783
25.3731
18.8406
15.4467
13.4938
12.1641
11.1293
10.2196
9.36319
8.42827
7.30254
6.6479
6.29743
6.47272
6.9005
7.21286
7.38783
7.38025
7.3733
7.24552
7.05553
6.81918
6.55435
6.23623
5.83122
5.36065
4.82621
3.90837
2.85403
3.17129
3.79316
0.543457
0.588701
0.659549
0.767739
0.918515
1.09072
1.2416
1.34732
1.38825
1.39263
1.38291
1.36241
1.33839
1.31422
1.29312
1.27938
1.28008
1.29167
1.29725
1.29341
1.2808
1.25961
1.23605
1.21252
1.19054
1.17098
1.15449
1.14052
1.13143
1.11038
0.543063
0.586888
0.654629
0.755867
0.894041
1.04977
1.18796
1.28788
1.33084
1.34105
1.3347
1.31879
1.29806
1.27743
1.26003
1.25047
1.25294
1.26661
1.27453
1.27159
1.26086
1.24196
1.22115
1.20054
1.18146
1.16464
1.15056
1.13879
1.1307
1.11165
0.542387
0.583797
0.646375
0.736549
0.855313
0.989967
1.11022
1.19498
1.24011
1.25778
1.25724
1.24879
1.23372
1.21862
1.20646
1.20165
1.2058
1.22105
1.23172
1.23078
1.22375
1.20954
1.19404
1.17886
1.16503
1.15293
1.14298
1.13442
1.12828
1.11185
0.541622
0.5803
0.63708
0.715291
0.814205
0.923569
1.02351
1.09812
1.14408
1.16709
1.1744
1.17203
1.16452
1.15527
1.14821
1.14664
1.15142
1.16601
1.1785
1.18091
1.17827
1.17139
1.16298
1.15483
1.14772
1.14112
1.13615
1.1302
1.12745
1.11425
0.541005
0.577411
0.629176
0.697163
0.779472
0.868326
0.950932
1.01638
1.06132
1.08816
1.10134
1.10536
1.10391
1.10022
1.0973
1.09755
1.10211
1.11412
1.12688
1.13419
1.13736
1.13791
1.13642
1.13564
1.13587
1.133
1.1333
1.12912
1.12981
1.12012
0.540801
0.576195
0.624856
0.685814
0.756443
0.830883
0.900728
0.958696
1.00182
1.0309
1.04849
1.05774
1.06138
1.06218
1.06252
1.06431
1.0693
1.0794
1.09168
1.10266
1.11151
1.11853
1.12403
1.12869
1.13279
1.13424
1.13711
1.13415
1.13437
1.131
0.541323
0.577826
0.626216
0.684017
0.748049
0.813727
0.875457
0.928374
0.970113
1.00074
1.02168
1.03494
1.04262
1.04686
1.04977
1.05324
1.05905
1.06852
1.08069
1.09359
1.10574
1.11658
1.12585
1.13356
1.13967
1.14374
1.14701
1.14481
1.14806
1.14747
0.543007
0.583893
0.635839
0.6948
0.757039
0.81877
0.876188
0.926178
0.967083
0.998736
1.02195
1.03807
1.04866
1.05549
1.06045
1.06547
1.07225
1.08194
1.09431
1.10795
1.12125
1.13312
1.14294
1.15039
1.15519
1.15783
1.16075
1.16013
1.17051
1.17625
0.546586
0.597015
0.65787
0.722999
0.788014
0.849804
0.905982
0.954872
0.995627
1.02819
1.0531
1.07124
1.08375
1.0921
1.09812
1.10384
1.11095
1.12058
1.13233
1.14492
1.15662
1.16614
1.17285
1.17662
1.17608
1.17586
1.17826
1.18103
1.20281
1.23261
0.553493
0.622174
0.699922
0.777443
0.849788
0.91488
0.972028
1.02109
1.06221
1.09562
1.12173
1.14103
1.15426
1.16271
1.16819
1.17286
1.17844
1.18588
1.19439
1.20282
1.2093
1.21229
1.21235
1.21069
1.20552
1.20079
1.20333
1.2182
1.26833
1.35198
0.566932
0.669955
0.777474
0.875528
0.959638
1.03017
1.08916
1.13866
1.18008
1.21407
1.24074
1.26009
1.27238
1.27881
1.28111
1.28094
1.28068
1.28145
1.28131
1.2808
1.27782
1.27309
1.26448
1.2539
1.24144
1.23983
1.25156
1.29303
1.4172
1.60616
0.595267
0.765766
0.925266
1.05419
1.15302
1.2284
1.28743
1.33563
1.37625
1.40986
1.43596
1.45347
1.46147
1.46165
1.45586
1.44283
1.42859
1.41462
1.4002
1.38542
1.36908
1.35139
1.33237
1.31292
1.30032
1.30679
1.34632
1.45285
1.77259
2.09653
0.665379
0.981815
1.23209
1.40044
1.50948
1.58117
1.63217
1.67326
1.70988
1.74081
1.76255
1.77204
1.76936
1.75764
1.72752
1.68719
1.64475
1.60425
1.56692
1.53235
1.49943
1.469
1.43911
1.41191
1.4105
1.44353
1.54653
1.82647
2.50569
2.82168
0.897057
1.58023
1.96954
2.15413
2.23819
2.27368
2.2929
2.31147
2.33374
2.35035
2.35238
2.34794
2.31782
2.26573
2.18398
2.08752
1.99509
1.91493
1.8484
1.79172
1.74184
1.70054
1.65577
1.63284
1.65214
1.76632
1.98606
2.62778
3.21114
3.18348
2.25139
3.89035
4.21938
4.18755
4.08872
3.9709
3.8846
3.83014
3.79521
3.7602
3.68722
3.60199
3.48045
3.32818
3.14775
2.943
2.77984
2.65626
2.56577
2.48729
2.4204
2.36617
2.28778
2.28286
2.37924
2.70879
2.9922
3.04741
3.40854
3.40415
25.3731
18.8389
15.4476
13.5004
12.1882
11.1854
10.3253
9.53634
8.7582
7.94126
7.01585
6.4858
6.15449
6.18673
6.41564
6.60202
6.72265
6.7126
6.74468
6.63485
6.55593
6.36404
6.115
5.78042
5.37557
4.89297
3.6863
2.81433
3.34769
3.83772
0.543438
0.586914
0.648198
0.729621
0.830404
0.940071
1.04101
1.12066
1.17084
1.19745
1.20878
1.20874
1.20369
1.19358
1.18219
1.17251
1.16839
1.16999
1.17205
1.17109
1.1666
1.15879
1.14652
1.13308
1.11963
1.10701
1.09591
1.08625
1.07934
1.06203
0.543204
0.585868
0.645522
0.723753
0.819326
0.922644
1.01809
1.09412
1.14334
1.17076
1.18302
1.1845
1.18041
1.17189
1.16209
1.15412
1.15132
1.15355
1.15714
1.15635
1.15315
1.1461
1.1355
1.1238
1.11213
1.10123
1.09171
1.0835
1.07725
1.06151
0.542811
0.584104
0.641016
0.713954
0.801053
0.894618
0.981308
1.05059
1.09793
1.12629
1.14021
1.14421
1.14187
1.136
1.1286
1.12291
1.12154
1.12436
1.12902
1.12977
1.12793
1.12279
1.11531
1.10669
1.09815
1.09019
1.08331
1.0771
1.07219
1.05855
0.542391
0.582196
0.636056
0.703111
0.780925
0.86315
0.939774
1.00234
1.0474
1.07632
1.09237
1.09903
1.09914
1.09629
1.09156
1.08794
1.08754
1.09036
1.09549
1.09819
1.09763
1.09547
1.09214
1.08726
1.08261
1.0781
1.07439
1.06996
1.06752
1.05656
0.542119
0.58087
0.63224
0.694234
0.763929
0.836108
0.903545
0.959972
1.00254
1.03168
1.04956
1.05881
1.0619
1.0612
1.05941
1.0573
1.05727
1.05977
1.06474
1.06884
1.07114
1.0721
1.07133
1.07063
1.06976
1.0682
1.06744
1.0658
1.0649
1.05719
0.542207
0.58097
0.631264
0.690055
0.754027
0.818795
0.879149
0.930596
0.97089
1.00004
1.01942
1.03097
1.03666
1.03847
1.03837
1.03779
1.03814
1.04045
1.04496
1.04994
1.05429
1.05793
1.06074
1.06296
1.06492
1.06474
1.06668
1.06443
1.06514
1.06272
0.54293
0.583545
0.635027
0.693261
0.754474
0.814885
0.870666
0.918708
0.957376
0.986548
1.00712
1.02049
1.02822
1.03193
1.03324
1.03367
1.03437
1.0366
1.04069
1.04586
1.05108
1.05604
1.06038
1.06398
1.06691
1.06868
1.07142
1.07039
1.07628
1.07578
0.544704
0.590127
0.646112
0.707168
0.768917
0.827958
0.881533
0.927649
0.965299
0.994476
1.01587
1.03053
1.03969
1.0447
1.04697
1.04799
1.04882
1.05074
1.05417
1.0587
1.06343
1.06804
1.07194
1.07482
1.07661
1.07801
1.08125
1.0825
1.09465
1.10508
0.548251
0.603328
0.668717
0.736912
0.802782
0.86327
0.91666
0.962059
0.999238
1.02847
1.05036
1.06577
1.07565
1.08113
1.08352
1.08428
1.08441
1.08514
1.08691
1.08945
1.09193
1.09418
1.09544
1.09469
1.09361
1.09369
1.09797
1.10633
1.13085
1.1676
0.555007
0.628154
0.710563
0.791588
0.865417
0.929798
0.984419
1.0298
1.06667
1.09574
1.11767
1.13313
1.14279
1.14758
1.14886
1.14805
1.1455
1.14299
1.14094
1.13924
1.13639
1.13453
1.13106
1.1269
1.12106
1.121
1.12827
1.15063
1.20599
1.30199
0.568187
0.675243
0.787245
0.888805
0.974431
1.04414
1.10017
1.14515
1.18111
1.20927
1.23043
1.2449
1.25299
1.25541
1.25372
1.24811
1.23946
1.23017
1.22069
1.21127
1.2015
1.1918
1.18192
1.17159
1.1637
1.16661
1.18672
1.24051
1.37449
1.58913
0.596187
0.770081
0.933597
1.06558