/*--------------------------------*- C++ -*----------------------------------*\
  =========                 |
  \\      /  F ield         | OpenFOAM: The Open Source CFD Toolbox
   \\    /   O peration     | Website:  https://openfoam.org
    \\  /    A nd           | Version:  10
     \\/     M anipulation  |
\*---------------------------------------------------------------------------*/
FoamFile
{
    format      ascii;
    class       volScalarField;
    location    "200";
    object      p;
}
// * * * * * * * * * * * * * * * * * * * * * * * * * * * * * * * * * * * * * //

dimensions      [0 2 -2 0 0 0 0];

internalField   nonuniform List<scalar> 
27507
(
249.546
319.412
420.829
636.004
73.9406
94.173
112.322
122.207
122.876
118.706
113.624
110.386
112.724
119.577
95.9958
84.4609
75.6227
67.9916
60.8056
53.6428
46.3254
38.2113
30.8117
18.3739
22.3658
233.471
287.04
388.655
566.507
73.2761
93.5567
107.118
114.173
115.229
112.397
108.288
105.573
107.304
110.625
92.4117
82.9109
75.2688
68.3437
61.6266
54.7913
47.6578
39.643
31.9506
19.7777
21.9113
214.215
239.287
322.747
447.078
51.1054
78.1132
93.2977
99.293
102.172
102.815
101.184
98.5255
96.6313
97.2401
97.6389
87.0697
80.618
74.5693
68.5634
62.4635
56.0992
49.3093
41.4182
33.4134
20.9247
21.5526
196.714
201.139
242.495
317.06
345.493
162.239
0.923804
54.9658
82.9737
91.6882
91.6317
90.6072
89.9442
88.8912
87.6888
87.0309
86.8157
84.5345
81.9571
78.3548
73.8086
68.7686
63.5601
58.1037
51.9584
44.0666
35.4256
22.3805
20.946
179.432
178.938
186.535
198.942
209.031
148.243
63.0073
54.2654
74.8509
86.4909
87.5999
83.6254
79.834
77.6163
76.6432
76.9698
78.3797
79.0617
79.3501
80.1252
77.5845
73.9456
70.2382
66.6812
62.4161
56.3693
47.8114
38.0918
24.2335
19.9226
163.872
163.611
163.687
163.098
143.473
121.054
89.2795
85.1289
91.0164
95.2412
95.2077
93.0868
90.8855
89.1466
88.0042
87.5374
87.2157
86.0361
83.2075
82.3628
79.6668
77.3718
75.8218
73.4249
68.6427
61.0343
51.166
40.3224
25.7263
18.1728
151.164
150.791
149.626
145.876
133.903
112.953
101.561
97.6122
100.487
102.758
102.792
101.432
99.6583
97.8943
96.424
95.4289
94.4717
92.6864
89.9707
87.9706
86.6421
86.0991
84.5788
80.2748
72.8938
63.3549
52.6349
40.8838
25.8339
15.6049
141.491
141.02
139.593
135.723
128.148
117.308
110.587
108.358
109.41
110.415
110.318
109.173
107.296
105.082
103.194
102.1
101.543
100.861
99.4976
98.2218
96.9273
94.4687
89.495
82.024
72.8692
62.8764
52.0492
39.7331
24.8044
12.8206
134.441
134.017
132.956
130.249
126.156
121.133
118.322
117.582
118.195
118.613
118.087
116.26
113.18
109.794
107.846
108.476
110.433
111.559
110.456
107.17
101.965
95.1542
87.1562
78.6632
69.9596
60.8273
50.5131
38.3111
24.0124
10.7205
129.476
129.235
128.952
127.973
126.869
125.784
125.893
126.635
127.373
127.355
125.817
122.079
116.824
113.042
113.892
118.438
122.154
121.705
116.135
107.214
97.3944
88.1901
80.138
73.0906
66.2977
58.8529
49.7665
38.2734
24.407
9.47254
126.091
126.263
127.112
128.063
129.497
131.361
133.977
136.255
137.197
136.333
132.676
125.911
119.311
118.428
123.955
130.135
131.268
123.869
110.607
97.0733
86.0224
77.9139
72.1792
67.7923
63.6145
58.5399
51.1918
40.5932
26.5136
8.85352
123.879
124.834
127.048
129.783
133.268
137.601
142.959
147.074
147.713
144.739
137.584
128.205
123.552
127.684
135.567
138.26
129.36
112.115
94.5546
81.4651
73.0314
68.1288
65.5462
64.1676
62.9935
60.7423
55.4687
45.9582
31.1566
9.25667
122.601
124.647
128.077
132.214
137.566
144.736
153.871
159.852
158.191
150.83
139.943
131.021
131.182
138.91
142.715
132.608
111.684
90.3947
74.9383
66.1307
61.9653
60.6112
61.0549
62.7339
64.9057
65.825
62.7699
54.4223
38.3388
10.7597
122.18
124.901
128.827
133.98
141.48
152.257
165.542
171.545
164.302
151.801
140.48
136.154
141.52
144.804
133.584
110.319
85.94
68.3332
58.8384
55.3049
54.9915
56.4049
59.4138
64.1956
69.8484
73.7045
72.5472
65.3476
47.6096
13.1021
122.588
124.762
128.435
134.293
143.971
157.972
173.06
176.167
163.113
148.493
142.922
145.601
146.835
134.98
110.825
85.1567
66.1267
55.614
51.7224
51.6835
53.3752
56.2949
61.2263
68.7356
77.2112
83.0882
83.4438
77.6465
58.308
16.7466
122.378
124.207
127.703
134.442
145.918
162.037
178.439
181.797
168.392
153.513
149.15
149.507
141.887
121.531
95.2954
73.0673
59.1459
52.4142
50.1523
50.4025
51.8598
54.6561
60.1841
69.163
79.2751
86.3778
88.0129
83.6754
63.2815
16.757
232.639
285.625
386.881
562.637
76.1216
96.0691
111.275
119.953
120.787
117.155
112.476
109.236
110.536
114.127
93.6064
82.8279
74.3393
66.8179
59.6689
52.5341
45.2432
37.2673
29.8592
18.2001
21.1877
221.111
258.696
356.453
507.94
76.384
96.2757
108.053
113.934
114.542
111.765
107.824
105.001
105.745
106.822
90.7969
81.511
74.0609
67.1799
60.4652
53.6521
46.5469
38.6624
31.0425
19.5391
21.744
206.176
220.789
297.413
397.992
539.649
46.7118
82.0035
97.3984
102.816
104.286
103.834
101.738
98.935
96.8328
96.6744
95.7826
86.0259
79.402
73.3256
67.2779
61.1819
54.8549
48.0593
40.2691
32.3947
20.6326
21.4137
190.512
192.36
220.864
290.959
314.02
198.706
-1.07291
60.2086
86.7158
96.5115
96.7497
94.61
92.6989
90.8181
89.0616
87.8996
87.146
84.8221
81.3113
77.0829
72.3546
67.3489
62.1999
56.6581
50.3136
42.5459
34.2272
22.0374
20.7518
175.013
174.698
179.321
202.588
191.511
145.912
71.6362
61.9836
79.3683
90.5755
92.9099
89.6923
85.6643
82.6711
80.7511
79.9382
80.177
80.0476
79.6497
79.2182
76.0592
72.41
68.7303
64.8656
60.1779
53.9683
45.7821
36.6411
23.8216
19.6571
160.797
160.477
159.593
154.923
140.706
122.785
93.943
89.3656
94.2602
97.8802
97.9397
95.9183
93.4698
91.2111
89.3288
87.9079
86.5762
84.638
81.4089
80.3571
77.6662
75.1438
72.8118
69.7071
64.9049
57.999
49.0043
38.8151
25.2861
17.8593
149.062
148.551
146.995
142.271
132.181
113.965
103.774
100.228
102.526
104.441
104.397
102.887
100.689
98.2642
95.935
93.9181
91.9755
89.6314
86.8175
84.5871
82.5908
80.8546
78.4678
74.3984
68.2696
60.2999
50.6779
39.6601
25.6542
15.3159
140.054
139.444
137.947
133.884
127.101
117.503
111.506
109.485
110.318
111.134
110.809
109.22
106.663
103.665
100.917
98.8805
97.3137
95.5979
93.3175
91.061
88.6211
85.5776
81.2644
75.465
68.3227
60.0626
50.5149
39.2546
25.2657
12.6188
133.412
132.788
131.697
128.899
125.11
120.678
118.19
117.638
118.25
118.516
117.56
115.051
111.342
107.533
104.955
104.065
103.805
102.548
99.4949
95.1875
90.1115
84.586
78.7052
72.5277
65.9262
58.5927
49.8971
38.9868
25.2784
10.5797
128.657
128.12
127.752
126.549
125.419
124.542
124.847
125.866
126.75
126.489
124.333
120.108
114.938
111.059
110.051
110.857
110.411
106.705
100.052
92.2121
84.6264
78.0088
72.4775
67.7329
63.1103
57.8058
50.6884
40.3492
26.2534
9.33379
125.347
125.11
125.73
126.194
127.365
129.319
132.195
134.863
135.964
134.677
130.549
124.176
118.175
115.575
116.192
116.062
111.71
102.878
92.0608
82.1048
74.3265
68.9125
65.481
63.3139
61.4843
58.8909
53.6978
43.829
28.4343
8.80257
123.125
123.435
125.262
127.342
130.57
135.204
140.887
145.242
145.88
142.475
135.628
127.4
121.703
120.25
119.411
114.177
103.212
89.539
77.28
68.5147
63.1321
60.439
59.7941
60.5894
61.9749
62.4739
59.2624
49.695
32.62
8.81967
121.771
122.773
125.992
129.772
135.343
143.096
151.907
157.288
155.657
148.501
138.593
129.366
124.068
120.939
114.355
101.466
85.1753
70.7444
61.1911
56.2733
54.3683
54.4287
56.3126
60.0135
64.7944
68.5287
67.2231
57.962
38.9352
9.52332
121.277
123.06
127.321
132.457
140.531
151.552
162.807
167.251
161.026
149.253
137.31
128.112
121.818
113.483
99.192
81.1307
64.9163
54.4021
49.8308
49.0958
49.9855
51.8677
55.6294
61.9529
69.947
76.5842
76.9296
68.2059
47.3175
11.1805
121.637
124.053
128.614
134.31
143.422
155.901
167.595
169.55
158.739
144.065
132.699
124.635
115.739
101.595
83.0883
65.7357
53.8362
47.9974
46.767
48.0984
50.0512
52.5186
57.3591
65.753
76.2611
84.9513
86.6806
79.2204
57.1422
13.8729
121.358
124.223
128.7
135.425
145.739
159.58
172.314
174.356
162.665
147.149
136.26
128.69
118.392
101.993
82.9265
66.7874
56.0382
50.3212
48.5264
49.2079
50.4749
52.3465
57.0972
66.3437
78.1196
87.9368
91.0653
85.6172
63.2961
14.3598
211.932
236.678
319.38
440.135
54.0368
84.6391
103.464
115.13
121.026
121.024
117.372
112.696
109.032
108.74
109.772
91.1288
81.1315
72.9432
65.5243
58.4157
51.2974
44.0268
36.1422
28.8369
17.5368
20.3673
204.917
219.376
295.372
392.472
493.027
51.0737
85.6044
103.697
112.98
116.73
116.275
113.103
108.958
105.591
104.844
103.797
88.673
79.8999
72.604
65.7439
59.028
52.2134
45.1332
37.3659
29.9075
18.7893
21.1177
194.257
196.957
250.991
315.516
356.623
59.41
89.6005
104.106
108.938
109.19
107.546
104.707
101.376
98.6128
97.2251
94.6962
84.6308
77.9946
71.8372
65.6884
59.5026
53.0983
46.2789
38.612
30.9718
19.6721
20.8062
181.106
180.564
192.652
241.045
223.544
158.621
38.3291
33.6046
71.0049
92.9132
102.412
103.4
100.929
98.1099
95.345
92.773
90.7324
88.943
85.4619
80.5474
75.7812
70.7232
65.4327
59.9942
54.2049
47.763
40.1964
32.292
20.7358
20.1807
167.939
167.273
168.376
170.466
176.112
127.597
83.4937
75.5347
86.7542
95.9038
98.7428
96.5237
92.7048
89.2207
86.4575
84.4846
83.3693
82.0415
80.5342
78.2815
74.3239
70.0973
65.7992
61.3089
56.2114
50.0507
42.4112
34.0521
22.171
19.2136
155.84
155.32
154.368
150.865
136.241
116.407
99.9937
95.5211
99.0811
102.037
102.092
100.07
97.2747
94.3619
91.5667
89.0242
86.5701
83.7082
79.8645
77.8517
74.2793
70.8044
67.4948
63.7726
58.9804
52.7172
44.7902
35.8236
23.5843
17.6992
145.759
145.174
143.747
139.293
130.124
117.081
107.347
104.127
105.417
106.668
106.333
104.545
101.868
98.7216
95.4203
92.2444
89.1688
85.8872
82.302
79.122
75.9446
73.0691
70.0717
66.2334
61.0926
54.522
46.4007
36.9509
24.4647
15.5418
137.903
137.269
135.895
132.129
126.12
118.492
113.2
111.254
111.521
111.821
111.097
109.075
105.911
102.024
98.0278
94.4545
91.3328
88.2605
84.8965
81.6708
78.3928
74.9962
71.1196
66.5023
61.0549
54.6751
47.0052
37.5994
25.1257
13.1663
132.031
131.369
130.336
127.699
124.296
120.584
118.34
117.719
117.978
117.858
116.521
113.55
109.138
104.142
99.6945
96.4305
93.9475
91.1937
87.4482
82.9967
78.1402
73.2233
68.4187
63.7856
59.1275
53.9906
47.6674
38.9477
26.5563
11.2693
127.785
127.154
126.705
125.42
124.278
123.48
123.67
124.498
125.144
124.638
122.213
117.582
111.509
105.687
101.587
99.154
96.6556
92.4431
86.36
79.4714
72.8192
67.1245
62.7179
59.5227
56.9788
54.2217
49.9906
42.0471
28.9425
10.0908
124.82
124.405
124.746
124.825
125.612
127.214
129.693
132.11
133.143
131.846
127.683
120.942
113.402
107.474
103.973
101.012
95.9766
88.2092
79.127
70.609
63.751
59.0265
56.5285
55.9267
56.3536
56.6592
54.7788
47.148
32.024
9.53179
122.862
122.887
124.146
125.497
128.018
131.956
136.993
141.148
142.113
139.158
132.573
123.671
115.151
109.134
104.541
98.1676
88.5623
77.3232
67.0756
59.3028
54.2094
51.732
51.851
54.2775
58.1159
61.8242
62.1052
54.0918
35.9663
9.70408
121.729
122.255
124.595
127.409
132.022
138.787
146.751
152.266
151.785
145.685
136.02
125.103
115.595
107.955
99.4876
87.9637
74.7165
62.8888
54.4655
49.4662
47.0662
46.982
49.5503
54.9338
62.2612
69.3439
71.4276
62.6739
41.2829
10.4878
121.331
122.265
125.634
129.876
136.848
146.663
157.022
162.295
158.173
147.486
134.755
122.456
111.682
100.825
87.7067
73.0644
59.9713
50.7732
45.8119
43.9493
43.8506
45.4893
49.9852
58.0224
68.4796
78.3686
81.7864
72.4718
48.3267
11.938
121.481
122.94
126.837
131.622
139.396
150.36
160.997
164.293
156.017
141.667
127.951
116.513
105.55
92.5783
77.7013
63.6464
52.9794
46.5546
43.8776
43.6777
44.581
46.9145
52.5633
62.5178
75.0787
86.5637
90.9076
82.0536
56.4529
13.8245
121.034
122.894
126.76
132.286
140.95
152.909
164.474
168.341
159.907
145.422
132.457
122.518
112.499
99.3906
84.1405
69.8989
58.9573
51.975
48.4492
47.2804
47.3267
48.9591
54.3008
64.5121
77.6264
89.6006
94.9045
87.9474
62.5486
14.6
193.432
196.671
236.928
308.85
323.134
-27.5736
66.6337
96.0958
112.373
122.019
125.807
124.594
120.315
114.989
110.264
107.95
105.901
88.9058
79.508
71.5732
64.2626
57.2069
50.1128
42.87
35.0683
27.8856
16.8936
19.7317
188.398
189.205
217.835
284.162
298.292
163.288
-1.99983
68.8206
96.7658
112.106
120.079
122.352
120.759
116.798
111.953
107.517
104.927
101.239
86.8347
78.4265
71.2145
64.3704
57.659
50.839
43.775
36.0994
28.8056
18.0136
20.5541
180.211
179.226
192.431
238.308
218.784
146.989
33.3772
36.6463
75.9989
99.1956
111.749
116.499
116.281
113.699
109.957
105.75
101.887
98.9259
94.2089
83.5182
76.7736
70.4749
64.2207
57.9503
51.4616
44.6037
37.0181
29.5854
18.6708
20.2567
170.082
168.882
170.265
176.722
184.092
128.902
72.1164
66.634
85.482
101.18
109.467
111.131
108.979
105.628
102.034
98.4702
95.2422
92.0707
86.8199
80.073
74.8097
69.4045
63.8352
58.1196
52.0641
45.4734
37.9811
30.3652
19.3068
19.6334
159.575
158.747
157.679
156.139
141.49
124.359
96.8619
89.8366
95.9706
102.578
105.282
103.945
100.639
96.9931
93.5804
90.5267
87.9188
85.1608
82.1099
77.8914
73.3162
68.5546
63.6762
58.5748
52.981
46.6286
39.1769
31.296
20.134
18.6951
149.917
149.289
147.936
144.02
133.147
117.162
105.626
102.51
104.553
106.521
106.453
104.558
101.688
98.4146
94.9638
91.4851
87.9891
84.2353
79.7567
76.8036
72.5507
68.2614
63.9829
59.39
54.0982
47.8345
40.3548
32.1694
20.9963
17.3243
141.772
141.205
139.838
135.831
128.218
118.358
110.953
108.325
108.804
109.418
108.855
106.998
104.187
100.738
96.8861
92.8823
88.8519
84.7118
80.4182
76.4656
72.3852
68.4235
64.4009
59.9169
54.6365
48.3949
40.9975
32.6621
21.6756
15.4534
135.307
134.762
133.58
130.236
125.201
119.314
115.107
113.392
113.265
113.171
112.237
110.149
106.94
102.85
98.2758
93.6645
89.2439
84.9415
80.6026
76.5027
72.354
68.1828
63.8338
59.1064
53.8607
47.9574
41.1006
33.0524
22.5124
13.3082
130.398
129.843
128.979
126.614
123.722
120.751
118.9
118.298
118.315
117.99
116.639
113.862
109.652
104.467
99.0552
94.0425
89.5394
85.1913
80.6175
75.8901
70.9701
66.031
61.1966
56.5141
51.8747
47.0223
41.5429
34.4874
24.4361
11.4008
126.807
126.265
125.883
124.685
123.663
122.987
123.093
123.721
124.202
123.75
121.716
117.728
112.054
105.656
99.6327
94.4704
89.739
84.6472
78.8602
72.7277
66.6965
61.2213
56.6114
52.9156
49.8495
46.983
43.7488
38.1572
27.9483
10.1747
124.284
123.904
124.199
124.186
124.764
126.008
127.953
129.953
130.985
130.207
127.056
121.423
114.127
106.668
100.129
94.3463
88.243
81.1427
73.4818
66.1643
59.8184
54.8691
51.5746
49.8765
49.324
49.379
48.999
44.4691
32.3491
9.52218
122.622
122.623
123.715
124.746
126.702
129.775
133.769
137.391
138.857
137.229
132.376
124.771
115.81
107.169
99.3957
91.5681
82.7396
73.3746
64.7417
57.6674
52.3587
48.9945
47.8008
48.7445
51.3631
54.9295
57.376
52.7801
36.9287
9.30114
121.681
122.181
124.111
126.257
129.85
135.16
141.609
146.861
148.011
144.354
136.862
126.834
115.924
105.405
95.1122
84.1585
72.9424
62.958
55.2701
49.9241
46.549
45.2231
46.3871
50.2636
56.3585
63.4669
68.0831
62.2797
41.797
9.6561
121.367
122.301
125.04
128.462
133.984
141.775
150.373
156.175
155.261
147.86
136.829
124.297
111.567
99.0393
86.299
73.5857
62.3785
53.9461
48.4855
45.3624
43.9435
44.471
47.84
54.6263
64.0284
74.0944
79.9746
72.5779
47.7687
11.0484
121.432
122.454
125.738
129.803
135.937
144.645
153.651
158.343
154.272
143.039
129.585
116.727
104.617
92.3613
79.7376
67.8096
58.087
51.3074
47.3103
45.4203
45.0483
46.6257
51.4842
60.446
72.1952
84.0338
90.5598
82.3946
54.8338
13.2194
120.859
121.95
125.176
129.611
136.172
145.443
154.951
160.116
156.247
145.005
132.162
120.942
110.884
100.07
87.9908
75.9603
65.7205
58.1468
53.1778
50.3108
49.1312
50.1008
54.6323
63.7396
76.1119
88.702
96.0963
89.0674
61.3561
14.7532
176.908
175.709
184.841
211.959
194.191
132.463
64.3984
67.5279
94
112.137
123.888
130.5
131.882
129.039
123.69
117.347
111.264
106.495
100.532
86.4895
77.8997
70.3203
63.1583
56.1742
49.1162
41.9093
34.1847
27.1167
16.3923
19.2566
173.149
172.083
177.666
201.649
184.721
132.939
69.9253
73.5833
95.5022
111.846
122.359
127.654
128.161
125.208
120.255
114.478
108.788
103.956
97.8847
84.8955
77.0309
70.0009
63.2121
56.5192
49.7004
42.6543
35.0539
27.9001
17.3882
20.1127
166.975
165.948
167.682
170.158
173.342
126.327
87.0851
85.1686
99.9632
112.817
120.947
123.999
123.078
119.751
115.14
109.94
104.704
99.7489
93.5492
82.3587
75.6903
69.3468
63.0289
56.6994
50.1531
43.273
35.7486
28.4785
17.8786
19.8392
159.298
158.366
157.401
156.311
141.713
124.648
101.064
96.4981
104.434
112.857
117.921
118.89
116.889
113.389
109.162
104.566
99.8327
94.9482
88.7474
79.6181
74.0479
68.3928
62.6162
56.7158
50.489
43.7957
36.333
28.9029
18.2034
19.2332
151.377
150.655
149.218
145.658
134.824
122.852
108.056
103.128
105.97
110.123
112.302
111.681
109.054
105.536
101.675
97.6574
93.5871
89.3762
84.4652
77.5909
72.638
67.5152
62.2659
56.7995
50.8912
44.3614
36.9244
29.2695
18.528
18.3081
144.047
143.496
142.118
138.211
129.957
118.251
110.881
108.511
109.334
110.297
109.912
108.061
105.202
101.759
97.9292
93.8474
89.6156
85.1646
80.04
76.2717
71.6195
66.867
62.0465
56.9383
51.2723
44.8403
37.3902
29.4649
18.7917
16.9851
137.762
137.311
136.135
132.547
126.576
119.163
113.969
111.841
111.709
111.706
110.841
108.899
106.051
102.511
98.4376
94.0163
89.4187
84.7057
79.8609
75.3587
70.8057
66.2999
61.7195
56.7932
51.2438
44.8705
37.4469
29.315
18.9166
15.2084
132.677
132.268
131.328
128.386
124.296
119.765
116.573
115.081
114.619
114.122
112.939
110.799
107.681
103.695
99.0588
94.0755
89.0125
83.9971
79.0393
74.3885
69.8229
65.3148
60.7271
55.8398
50.4204
44.2444
37.0875
29.0136
19.1803
13.0498
128.749
128.329
127.653
125.547
123.108
120.721
119.192
118.533
118.244
117.637
116.211
113.652
109.87
105.04
99.5646
93.9052
88.364
83.0123
77.8021
72.8296
67.9768
63.2418
58.5795
53.8641
48.8649
43.2858
36.915
29.43
20.3957
10.8078
125.836
125.406
125.093
123.968
123.029
122.393
122.322
122.604
122.737
122.154
120.385
117.092
112.257
106.282
99.8207
93.4214
87.2745
81.3082
75.4692
69.882
64.6113
59.7592
55.3701
51.322
47.2829
42.9048
38.1029
31.9314
23.4394
8.97741
123.766
123.432
123.66
123.554
123.921
124.758
126.058
127.392
128.074
127.477
125.126
120.753
114.558
107.245
99.6437
92.234
85.0364
77.9893
71.2661
65.1609
59.8344
55.4029
51.9162
49.2027
46.8409
44.5354
42.2155
37.6178
28.1712
7.79649
122.389
122.355
123.25
124.015
125.444
127.618
130.4
133.031
134.353
133.531
130.197
124.339
116.463
107.517
98.3715
89.39
80.6472
72.4348
65.22
59.2726
54.6049
51.254
49.29
48.5734
48.6973
49.4677
50.248
46.435
33.5181
7.27409
121.615
122.046
123.56
125.102
127.681
131.445
136.042
140.179
141.928
140.189
135.019
126.975
116.913
105.899
94.7668
83.9357
73.8883
65.2767
58.514
53.5462
50.1383
48.3225
48.3413
50.2587
53.7447
58.3722
62.007
57.2848
38.7981
7.51597
121.363
122.099
124.118
126.589
130.573
136.191
142.582
147.722
148.863
144.835
136.614
125.737
113.44
100.686
88.1782
76.5305
66.5146
58.7092
53.1789
49.577
47.5952
47.4335
49.6811
54.7449
62.1797
70.689
76.1201
69.2572
44.8816
9.03284
121.325
122.096
124.562
127.697
132.095
138.364
145.221
149.974
149.337
142.381
131.264
118.696
106.206
94.1716
82.6992
72.2351
63.448
56.7474
52.1203
49.299
48.1491
49.1124
53.1453
60.955
71.7381
83.1256
89.5486
81.1698
52.3667
11.8959
120.828
121.491
123.854
127.067
131.382
137.706
144.612
149.362
148.721
141.65
130.564
118.828
108.138
98.1635
88.2657
78.6374
70.0126
62.9658
57.6914
54.1297
52.3152
52.8052
56.7235
65.0273
76.9715
89.8122
97.5518
89.6923
59.842
14.1451
162.127
161.372
161.475
160.286
145.169
122.243
99.2788
101.751
110.922
119.549
124.918
127.03
125.846
122.056
116.75
110.819
104.863
99.0858
92.4037
83.8948
76.2848
69.1364
62.1824
55.2962
48.2911
41.131
33.479
26.5114
16.009
18.8933
159.554
158.784
158.318
155.538
142.346
123.12
101.696
104.051
111.837
119.271
123.71
124.951
123.284
119.455
114.356
108.677
102.946
97.2869
90.8781
82.8071
75.6783
68.9019
62.2336
55.5905
48.7915
41.7731
34.2382
27.1978
16.9126
19.7599
155.254
154.49
153.609
150.903
138.286
119.996
107.262
106.968
112.859
118.387
121.345
121.521
119.382
115.617
110.856
105.556
100.108
94.5729
88.5597
81.1485
74.6771
68.3687
62.0681
55.7223
49.1505
42.2713
34.8028
27.6604
17.3073
19.5209
149.843
149.105
147.735
144.119
134.448
120.77
111.358
110.234
113.652
117.01
118.431
117.658
115.14
111.456
107.016
102.1
96.9742
91.6551
86.1266
79.2653
73.3881
67.5666
61.6841
55.6792
49.3639
42.631
35.2075
27.9213
17.4827
18.9694
144.186
143.604
142.196
138.387
130.584
120.607
114.002
112.386
113.789
115.316
115.515
114.118
111.432
107.878
103.719
99.1327
94.2943
89.2331
84.1868
77.6428
72.1356
66.7429
61.2797
55.6233
49.5673
42.9664
35.5587
28.0623
17.5735
18.1176
138.854
138.427
137.242
133.583
127.361
119.657
114.687
112.84
112.959
113.184
112.485
110.637
107.831
104.334
100.312
95.8925
91.2123
86.3257
81.2095
76.07
71.0003
65.9756
60.8855
55.5485
49.7308
43.2407
35.8188
28.0382
17.5621
16.9006
134.184
133.87
132.931
129.749
125.077
119.758
116.082
114.345
113.8
113.274
112.075
109.99
107.085
103.495
99.3369
94.7447
89.879
84.8626
79.7468
74.8116
69.9508
65.1851
60.3807
55.312
49.7118
43.3267
35.8803
27.7652
17.4314
15.2486
130.325
130.057
129.339
126.765
123.449
119.994
117.546
116.219
115.493
114.63
113.16
110.884
107.77
103.878
99.3263
94.3063
89.0426
83.7261
78.4723
73.4931
68.7175
64.1079
59.5178
54.7101
49.3747
43.1545
35.7581
27.3685
17.4048
13.1228
127.288
127.003
126.484
124.61
122.532
120.583
119.271
118.528
117.945
117.017
115.391
112.857
109.332
104.868
99.6575
93.9932
88.1736
82.4303
76.9084
71.7625
66.9573
62.4479
58.108
53.6913
48.7978
42.9307
35.8408
27.4805
18.1641
10.5966
124.996
124.676
124.41
123.332
122.427
121.786
121.537
121.476
121.215
120.351
118.563
115.62
111.428
106.11
99.9859
93.4678
86.9146
80.5805
74.6398
69.2406
64.3998
60.1033
56.2461
52.5233
48.3789
43.233
37.0314
29.3462
20.645
8.0451
123.34
123.047
123.177
122.951
123.114
123.61
124.363
125.056
125.229
124.46
122.414
118.85
113.724
107.275
99.9766
92.3558
84.8397
77.7497
71.3385
65.7828
61.1237
57.3521
54.352
51.7261
48.8038
45.1055
40.777
34.3883
25.1435
6.01684
122.213
122.099
122.758
123.287
124.315
125.8
127.578
129.181
129.925
129.232
126.733
122.244
115.843
107.929
99.1473
90.1603
81.5298
73.721
67.0605
61.6858
57.578
54.7007
52.94
51.9018
50.9798
49.9291
48.5227
43.1012
30.6409
5.01634
121.551
121.789
122.931
124.036
125.843
128.389
131.399
134.142
135.528
134.676
131.219
125.21
117.003
107.243
96.7767
86.4287
76.9288
68.8304
62.3982
57.617
54.3727
52.6654
52.5087
53.7391
55.9831
58.9662
60.8195
54.6039
36.0512
5.34477
121.311
121.902
123.349
125.028
127.716
131.493
135.81
139.539
141.116
139.332
133.978
125.658
115.276
103.795
92.1761
81.2762
71.7997
64.1743
58.4747
54.5543
52.3118
51.9226
53.7416
58.0537
64.6009
72.3358
76.5865
67.7815
42.2637
7.31303
121.278
121.85
123.498
125.69
128.745
132.988
137.751
141.503
142.335
138.869
131.246
120.857
109.329
97.8099
86.9562
77.2012
68.9231
62.3494
57.4794
54.2361
52.7166
53.3867
57.0421
64.4221
75.0335
86.5962
92.1639
81.1795
50.2092
10.5998
120.856
121.281
122.791
124.942
127.706
131.734
136.314
139.742
140.207
136.399
128.474
118.129
107.417
97.4146
88.27
79.9623
72.6326
66.4768
61.5988
58.0944
56.263
56.7642
60.6138
68.8393
81.0345
94.5315
101.673
90.9319
58.4517
12.9845
150.381
149.435
147.788
144.192
135.402
120.039
112.051
109.728
114.443
118.738
121.297
121.929
120.403
117
112.326
106.947
101.273
95.5267
89.2217
81.8755
74.8655
68.0617
61.3168
54.5436
47.6057
40.4984
32.9085
26.0166
15.6916
18.5602
148.741
147.849
146.108
142.098
133.769
120.272
113.032
110.692
114.488
118.21
120.32
120.521
118.73
115.286
110.714
105.474
99.9264
94.2657
88.1238
81.159
74.4652
67.919
61.4007
54.8304
48.0677
41.082
33.5972
26.6356
16.5248
19.4141
145.95
145.152
143.574
139.296
131.432
120.654
113.409
112.098
114.744
117.401
118.672
118.212
116.069
112.595
108.191
103.181
97.8506
92.3504
86.4537
79.9869
73.7123
67.5139
61.2935
54.9705
48.4002
41.5314
34.1032
27.0461
16.8776
19.2136
142.331
141.663
140.118
136.116
129.11
120.682
114.807
113.488
114.873
116.339
116.68
115.568
113.106
109.609
105.363
100.583
95.4877
90.1826
84.5536
78.5689
72.7068
66.8821
60.9956
54.9518
48.5945
41.8465
34.4536
27.2644
17.0123
18.7358
138.444
137.95
136.647
132.918
127.116
120.448
115.87
114.331
114.644
115.042
114.574
112.957
110.287
106.8
102.695
98.1211
93.237
88.126
82.7826
77.1823
71.6643
66.1951
60.6488
54.8994
48.7706
42.1441
34.7669
27.3818
17.057
17.9968
134.688
134.365
133.325
130.024
125.268
120.025
116.452
114.843
114.415
114.006
112.927
110.95
108.129
104.622
100.564
96.071
91.2715
86.2624
81.0835
75.8208
70.6453
65.5031
60.2859
54.8387
48.9546
42.457
35.0787
27.4139
17.0329
16.9384
131.318
131.11
130.338
127.528
123.828
119.957
117.195
115.672
114.846
113.94
112.47
110.251
107.293
103.687
99.5246
94.9162
89.9987
84.907
79.7352
74.6426
69.6649
64.7784
59.8661
54.7373
49.1375
42.7996
35.4042
27.349
16.9607
15.4794
128.467
128.311
127.736
125.464
122.728
120.026
118.044
116.791
115.861
114.725
113.037
110.643
107.516
103.697
99.2684
94.3591
89.1451
83.8134
78.5167
73.4284
68.5661
63.8999
59.3055
54.5633
49.3426
43.2205
35.8144
27.2958
17.0393
13.5124
126.172
126.006
125.58
123.882
122.058
120.393
119.185
118.335
117.509
116.324
114.519
111.948
108.557
104.367
99.478
94.0721
88.3892
82.6772
77.1431
71.9656
67.1784
62.7537
58.5749
54.3822
49.7058
43.9147
36.6231
27.7674
17.8869
10.9373
124.404
124.196
123.94
122.873
121.946
121.238
120.797
120.436
119.842
118.711
116.818
114.012
110.219
105.464
99.8954
93.7802
87.4467
81.2184
75.3608
70.0672
65.3972
61.3451
57.7997
54.4156
50.5183
45.3176
38.5857
29.8971
20.4131
7.9214
123.099
122.877
122.896
122.515
122.437
122.595
122.888
123.061
122.78
121.753
119.753
116.613
112.247
106.708
100.225
93.1834
86.0348
79.2047
73.023
67.6968
63.3043
59.8601
57.2352
54.9624
52.204
48.2256
43.0053
35.1513
25.0125
5.16817
122.188
122.067
122.482
122.735
123.357
124.251
125.252
126.03
126.165
125.291
123.133
119.501
114.328
107.737
100.097
91.9594
83.9363
76.562
70.2008
65.0414
61.1508
58.5503
57.1015
56.3041
55.3866
53.9117
51.4553
44.2698
30.633
3.74239
121.634
121.768
122.56
123.262
124.427
126.024
127.82
129.353
130.025
129.295
126.785
122.316
115.944
107.985
99.0267
89.8183
81.1056
73.4604
67.2001
62.4434
59.2297
57.6257
57.6069
58.9248
61.1617
63.9804
64.9457
56.4675
35.9383
4.2528
121.402
121.77
122.756
123.807
125.508
127.88
130.558
132.854
133.928
133.022
129.662
123.799
115.815
106.384
96.3435
86.5516
77.7273
70.3247
64.5348
60.3969
57.9808
57.5272
59.367
63.8209
70.7747
79.0605
82.4268
70.2439
41.6876
6.47886
121.283
121.704
122.772
124.178
126.182
128.864
131.858
134.288
135.135
133.479
128.831
121.411
112.081
101.935
91.9275
82.7401
74.7924
68.2997
63.3313
59.9241
58.3077
59.0289
62.8984
70.7955
82.4482
95.1633
99.3624
83.7681
49.269
9.62597
120.963
121.234
122.154
123.488
125.24
127.658
130.409
132.492
132.893
130.755
125.646
117.9
108.635
99.1232
90.2056
82.2567
75.4187
69.7481
65.2666
62.0784
60.5803
61.5562
66.0808
75.2959
88.9173
103.748
109.257
93.5758
57.6147
11.7777
142.057
140.984
138.872
134.387
127.983
119.72
114.998
113.672
115.567
117.341
118.146
117.676
115.749
112.504
108.269
103.383
98.1045
92.5783
86.6441
80.0823
73.5536
67.0649
60.5281
53.8794
47.0175
39.9624
32.419
25.5729
15.3844
18.1708
141.032
140.057
138.064
133.62
127.48
119.845
115.405
114.052
115.496
116.937
117.468
116.773
114.712
111.442
107.256
102.448
97.2487
91.801
85.9886
79.6547
73.3261
67.0269
60.673
54.1933
47.4796
40.5254
33.0721
26.1523
16.1669
18.9969
139.261
138.455
136.634
132.451
126.591
120.023
115.872
114.643
115.478
116.345
116.394
115.307
113.016
109.69
105.571
100.887
95.825
90.5095
84.8856
78.8547
72.8164
66.7847
60.6713
54.3973
47.8462
40.9875
33.5773
26.5594
16.5147
18.838
136.897
136.25
134.688
130.833
125.645
120.142
116.495
115.221
115.415
115.632
115.134
113.633
111.109
107.72
103.659
99.0914
94.1678
88.9943
83.5723
77.8497
72.1156
66.375
60.5309
54.4879
48.114
41.3517
33.9628
26.814
16.6742
18.4438
134.279
133.825
132.539
129.142
124.685
120.119
116.993
115.596
115.218
114.829
113.829
111.98
109.276
105.847
101.835
97.3653
92.5586
87.5127
82.2665
76.8269
71.3787
65.9263
60.365
54.5751
48.4007
41.7451
34.3648
27.024
16.7773
17.835
131.677
131.391
130.417
127.442
123.722
119.981
117.328
115.866
115.068
114.197
112.797
110.676
107.83
104.349
100.338
95.8983
91.138
86.1573
81.0292
75.8271
70.6514
65.4786
60.2106
54.7045
48.7692
42.2471
34.8673
27.2464
16.8724
16.9565
129.278
129.118
128.388
125.883
122.877
119.929
117.736
116.32
115.284
114.102
112.43
110.116
107.144
103.573
99.4814
94.9623
90.1303
85.1081
80.0048
74.9358
69.9533
65.0351
60.078
54.9077
49.2804
42.9425
35.5542
27.5193
17.0117
15.7196
127.192
127.093
126.543
124.498
122.171
119.956
118.247
116.998
115.897
114.559
112.724
110.266
107.161
103.439
99.1685
94.4497
89.4222
84.2465
79.0744
74.0478
69.2152
64.5569
59.9646
55.2321
50.0345
43.9501
36.5476
27.9603
17.3938
13.9754
125.463
125.366
124.941
123.358
121.694
120.181
118.989
118.013
116.985
115.612
113.688
111.102
107.82
103.857
99.2832
94.2248
88.867
83.4243
78.0977
73.0557
68.365
64.0172
59.9115
55.8013
51.2139
45.4922
38.153
29.0337
18.605
11.5033
124.092
123.954
123.649
122.558
121.563
120.737
120.091
119.465
118.608
117.276
115.298
112.567
109.037
104.718
99.6921
94.1366
88.3064
82.4888
76.9441
71.8738
67.3746
63.4662
60.0642
56.8414
53.101
47.9855
41.1012
31.8326
21.524
8.26341
123.047
122.87
122.748
122.192
121.854
121.682
121.58
121.343
120.713
119.467
117.44
114.521
110.65
105.835
100.196
93.9873
87.5642
81.3066
75.541
70.5012
66.3184
63.0573
60.6312
58.5898
56.0475
52.1573
46.6675
37.8122
26.4726
4.97196
122.289
122.138
122.296
122.257
122.488
122.883
123.294
123.471
123.124
122.005
119.928
116.754
112.412
106.938
100.528
93.5528
86.4939
79.8282
73.9316
69.0519
65.3502
62.9297
61.7029
61.1783
60.5425
59.2664
56.5279
47.7789
32.2618
3.22042
121.795
121.792
122.244
122.583
123.224
124.099
125.023
125.676
125.687
124.737
122.567
119.002
113.991
107.665
100.366
92.6177
85.0218
78.1092
72.2502
67.6798
64.5774
63.1015
63.2917
64.9525
67.7369
71.247
71.9441
60.8783
37.3721
3.93286
121.55
121.772
122.39
122.955
123.897
125.209
126.656
127.801
128.145