/*--------------------------------*- C++ -*----------------------------------*\
  =========                 |
  \\      /  F ield         | OpenFOAM: The Open Source CFD Toolbox
   \\    /   O peration     | Website:  https://openfoam.org
    \\  /    A nd           | Version:  10
     \\/     M anipulation  |
\*---------------------------------------------------------------------------*/
FoamFile
{
    format      ascii;
    class       surfaceScalarField;
    location    "200";
    object      phi;
}
// * * * * * * * * * * * * * * * * * * * * * * * * * * * * * * * * * * * * * //

dimensions      [0 3 -1 0 0 0 0];

internalField   nonuniform List<scalar> 
81522
(
525.265
8.3084
9.22613
113.375
30.4592
33.9239
115.22
115.306
116.988
93.8685
9.19936
10.3084
-14.8399
3.11525
3.41418
2.03298
2.09821
2.09841
2.0814
-1.39187
-0.548314
-1.74215
3.68411
-11.8906
-2.16179
-0.464805
14.5179
-21.406
23.3701
-2.38539
0.422119
-28.4083
29.8524
-2.14282
0.699068
-33.6768
34.8226
-1.87305
0.727414
-38.0013
38.995
-1.6607
0.66715
-41.818
42.7046
-1.47482
0.588361
-45.1382
45.8465
-1.25513
0.546913
-47.484
47.8067
-0.927204
0.60463
-47.6339
186.239
-3.53499
5.74405
-47.0128
-47.1994
-46.6003
705.842
-22.9989
37.6352
-183.085
-178.8
-181.327
-177.249
694.865
-23.7214
34.7103
688.505
-26.4228
32.7941
687.026
-30.215
31.7033
690.804
-34.8679
31.0973
700.175
-40.0939
30.7268
715.168
-45.3782
30.3832
735.486
-50.1143
29.7864
760.132
-53.5818
28.9206
788.962
-55.9849
27.1429
-55.4725
26.0574
529.667
13.6883
8.06041
118.568
47.6938
28.5558
122.144
120.024
123.155
-16.9335
104.519
22.2839
8.7028
-10.7695
-19.6665
12.4695
2.88879
3.84422
3.70404
3.64878
3.88174
-5.60985
4.00226
-6.01127
-1.10965
8.73383
-16.0368
7.64618
-0.352361
-9.0757
17.8209
8.31051
-22.0714
23.2724
-9.8005
0.290098
7.79844
-26.5492
27.5659
-9.34363
0.5291
7.04052
-30.4555
31.375
-8.55106
0.591514
6.35869
-34.0315
34.8874
-7.79063
0.576341
5.70174
-37.3634
38.1518
-7.02217
0.532265
4.89012
-40.3493
41.004
-6.05023
0.505676
3.69953
-42.6057
42.9804
-4.62386
0.549776
-43.2699
8.0282
170.39
-12.9681
4.97169
-42.2253
-42.9617
-41.9591
656.146
-54.2907
33.3251
-168.771
-161.192
-167.631
-160.548
653.077
-52.393
31.7738
651.125
-55.193
30.7549
651.785
-61.0553
30.2101
656.239
-69.242
29.9447
665.328
-78.9375
29.7709
679.449
-89.0217
29.5216
698.52
-98.1532
28.9475
721.959
-105.025
27.9684
749.133
-109.293
26.1039
-109.181
23.973
535.251
15.6192
6.50835
125.9
50.695
21.4522
128.865
126.65
129.394
-24.6649
119.276
25.0756
6.21699
-14.083
-27.06
25.4022
13.88
1.86164
-0.691488
0.864049
-0.0735184
-0.0913756
-19.6206
11.1139
-11.7483
-0.432846
20.6903
11.8387
-22.6574
0.0329667
23.0817
-12.2946
12.8588
-24.076
24.3905
-13.4628
0.290401
12.8519
-25.4423
25.8434
-13.6561
0.403552
12.273
-27.196
27.691
-13.2214
0.453598
11.5204
-29.2784
29.8344
-12.5403
0.463952
10.5963
-31.5518
32.1305
-11.625
0.450153
9.30319
-33.8349
34.3765
-10.2854
0.440822
7.38012
-35.8461
36.2621
-8.27031
0.474273
-36.9773
18.6086
147.135
-24.4554
4.02587
-35.7504
-36.8741
-35.7082
583.224
-93.0154
28.6528
-147.376
-138.885
-147.355
-139.5
588.528
-86.4131
28.753
591.663
-87.2376
28.9465
595.196
-93.769
29.2151
601.159
-104.626
29.4508
610.944
-118.227
29.5251
625.301
-132.694
29.3192
644.43
-145.89
28.5874
667.917
-155.742
27.1924
695.527
-161.621
24.6848
-161.169
21.7621
540.322
15.2027
5.07872
529.432
45.849
15.7473
128.626
87.9375
31.5833
-24.3717
-33.2218
-23.6588
-32.0224
132.323
129.451
132.804
-49.7412
129.506
40.8542
8.01296
-21.7322
-33.2695
35.045
18.0065
1.95204
-3.91654
0.860552
3.59178
-0.52491
-2.89739
3.24885
-2.61338
2.26247
14.609
-29.5841
28.9403
-13.5882
-0.375997
11.8871
-28.1096
-0.05875
27.9481
-11.6658
12.7032
-27.4165
27.2081
-12.6165
0.121924
14.2832
-26.5295
26.3278
-14.2827
0.201479
15.0737
-25.8803
25.8017
-15.2455
0.250259
15.159
-25.7669
25.8211
-15.5064
0.293228
14.8218
-26.1477
26.3067
-15.3057
0.325022
14.0854
-26.9115
27.1495
-14.666
0.342589
12.792
-27.9603
28.254
-13.443
0.357459
10.7638
-29.2075
29.5443
-11.4899
0.38949
-30.5028
30.841
123.428
-36.9775
3.10695
-29.4865
-30.6769
-29.7294
504.431
-133.155
25.0232
-125.074
-117.922
-126.407
-119.871
512.995
-121.707
26.772
517.972
-120.32
28.1473
522.499
-127.379
29.1242
528.977
-140.751
29.6839
539.06
-158.151
29.8681
553.618
-176.846
29.6018
573.029
-193.75
28.4292
597.092
-205.944
26.0951
625.916
-212.819
22.3326
-210.8
18.2347
544.175
13.3018
3.81501
541.233
37.5902
11.2092
545.464
63.6604
20.0596
141.872
88.3978
7.88803
-32.9582
-38.88
-31.6573
-37.2441
141.691
141.905
141.637
9.23638
6.51528
7.08394
-43.1875
147.903
31.3109
5.85077
-9.14318
-39.1299
40.3189
0.846855
7.10746
1.56214
-42.4782
41.9276
0.394047
-1.40406
9.74856
-38.2241
144.155
-31.6362
-0.10327
10.2987
9.58128
10.1459
-38.2359
-37.8733
-37.8488
10.7947
-137.809
133.78
-38.3954
-0.280994
10.633
10.7255
10.5589
10.8224
-131.008
129.104
-41.3208
0.139303
10.9479
10.6147
10.7027
11.9968
-127.188
125.175
-46.3033
0.39582
12.327
11.6529
11.9456
13.7155
-122.791
120.358
-52.6362
0.495707
14.0026
13.288
13.566
15.0142
-117.827
115.507
-57.8444
0.644419
15.1767
14.5816
14.747
15.7016
-113.291
111.344
-61.059
0.902831
15.7594
15.2897
15.3526
15.8784
-109.54
107.973
-62.3503
1.22892
15.8482
15.4929
15.4701
15.5557
-106.576
105.411
-61.6713
1.5705
15.4221
15.2062
15.0831
14.6379
-104.498
103.868
-58.7659
1.94602
14.3792
14.3402
14.0949
13.0967
-103.629
103.803
-53.7376
2.36874
12.7262
12.8654
12.5096
42.6741
-104.518
105.842
-46.68
2.68513
430.41
-164.266
24.0867
-106.791
-102.188
-109.352
-105.01
433.427
-151.592
26.9156
434.67
-150.325
28.8138
436.758
-159.324
29.9082
441.556
-176.197
30.6939
450.413
-198.228
31.2532
464.325
-221.448
30.6989
483.807
-241.321
28.0642
508.687
-254.593
23.714
539.129
-261.22
17.9024
-255.777
12.2755
546.543
10.6933
2.80884
547.401
28.6842
8.05577
553.202
44.3443
13.5208
569.164
53.5043
18.9467
148.422
42.2858
20.4765
-22.4529
-19.9354
-21.8935
-19.4864
146.958
148.133
146.676
-12.2461
151.168
6.76916
2.73451
9.03952
-152.112
151.205
-9.8395
1.71045
572.161
-101.608
5.71827
27.3678
31.1452
26.2355
30.0179
-148.503
-147.249
-148.225
-147.034
557.882
-132.832
4.23082
35.5593
37.0395
34.4298
35.8731
547.717
-155.075
4.51666
40.0291
41.7271
38.7677
40.2098
536.319
-174.789
5.0119
45.0909
47.3629
43.3706
45.357
520.799
-193.398
5.45833
50.9278
53.0377
48.7673
50.7275
501.445
-209.041
6.33448
55.9745
57.4468
53.6053
55.0369
479.435
-220.213
7.94999
59.3867
60.1702
56.9638
57.7571
455.909
-226.381
10.2913
61.053
61.1396
58.6475
58.7857
432.037
-226.948
13.2348
60.8852
60.1797
58.5775
57.9613
409.025
-221.493
16.7798
58.7062
57.2169
56.6028
55.2256
388.066
-210.682
20.4831
54.7118
52.6652
52.886
50.9311
371.015
-195.805
23.6918
49.1901
47.0205
47.6011
45.3965
359.06
-179.162
26.9015
348.671
-170.506
29.3597
340.531
-173.084
30.9598
335.662
-187.117
32.7211
335.266
-210.37
34.6219
340.975
-238.703
34.8028
354.189
-266.409
31.7574
374.99
-287.565
25.4102
401.979
-299.526
17.8702
434.202
-303.288
9.76558
-291.921
2.91659
547.789
7.939
2.0456
550.41
20.248
5.82135
556.693
28.605
9.46381
567.97
29.5916
12.6443
581.137
15.4411
13.6875
587.579
-17.7864
11.8816
-2.52343
2.69541
-2.84695
2.15153
584.764
-60.1595
9.20339
11.1926
16.4974
10.4544
15.6428
576.21
-100.105
7.06301
567.808
-130.628
6.20968
559.67
-153.218
6.28929
549.124
-170.952
6.71448
533.681
-185.312
7.36281
512.502
-196.396
8.54056
486.015
-204.239
10.5252
455.238
-208.932
13.3457
421.247
-209.823
16.8913
384.901
-206.206
21.0957
347.153
-198.228
25.3386
310.285
-187.635
28.7488
277.451
-177.917
31.649
249.467
-176.602
34.1461
226.672
-187.377
37.1565
210.186
-211.085
40.5218
202.721
-244.234
41.3884
206.817
-279.946
37.1899
222.774
-310.47
28.1135
248.107
-329.871
16.9266
278.84
-336.926
6.56076
312.098
-333.676
-2.98829
-314.361
-9.13742
548.289
5.36966
1.48579
551.479
12.8134
4.25055
557.365
15.8832
6.84222
566.112
11.8207
9.03021
575.435
-3.92653
10.0529
580.982
-32.9432
9.61904
581.145
-68.9508
8.63759
577.353
-104.137
7.835
571.779
-132.7
7.65474
564.334
-153.757
7.99054
553.035
-168.31
8.66293
535.64
-177.655
9.74526
510.852
-183.15
11.5565
478.689
-186.375
14.3176
439.843
-188.05
17.9942
394.791
-187.168
22.4376
343.268
-181.944
27.3052
285.978
-173.232
32.3433
226.068
-164.67
37.0018
168.69
-161.967
41.4944
118.225
-172.344
46.2792
78.6136
-198.254
50.5649
53.7863
-237.089
50.9053
46.3669
-281.154
44.4041
55.9356
-321.354
31.8846
78.9903
-350.102
16.5811
110.405
-363.442
2.08634
144.376
-361.305
-9.74156
175.862
-347.38
-17.9471
-321.089
-19.852
548.308
3.18526
1.08624
551.4
6.56402
3.16293
556.53
5.61978
5.14002
563.505
-2.02485
6.87597
570.76
-19.177
8.00175
575.806
-46.3599
8.3796
577.509
-79.1286
8.48475
575.981
-111.262
8.6619
571.661
-137.502
9.12985
563.747
-155.741
9.90314
550.275
-165.877
11.0449
528.969
-169.166
12.8291
498.454
-168.179
15.5617
458.635
-165.79
19.2692
409.629
-162.691
23.6931
349.698
-156.253
29.0605
275.419
-143.912
36.2967
187.598
-130.32
44.9648
94.6348
-125.911
54.2661
9.15931
-138.757
62.3345
-58.2305
-171.134
66.2589
-101.726
-218.302
63.6263
-120.588
-271.045
52.8961
-117.898
-319.775
35.9944
-98.6363
-357.321
16.7461
-68.3409
-378.859
-1.54563
-33.0681
-382.248
-16.565
0.26179
-368.734
-26.1081
25.4942
-343.932
-28.8999
-315.512
-24.2808
548.072
1.43737
0.805185
550.659
1.5732
2.4111
554.824
-2.55191
4.01218
560.297
-13.049
5.5564
566.032
-31.7687
6.86177
570.514
-58.6934
7.86096
572.787
-90.2148
8.82324
572.185
-120.517
9.86528
567.805
-144.119
11.0004
558.027
-158.332
12.3711
540.46
-162.607
14.3023
512.704
-158.517
17.1204
473.702
-149.864
20.7239
423.233
-140.14
24.8703
357.755
-127.637
30.4758
268.722
-107.277
40.1145
153.346
-82.7935
54.3093
23.1705
-70.8389
70.739
-99.5099
-87.1937
84.0159
-194.741
-130.577
87.1242
-255.55
-188.789
78.5502
-285.182
-249.912
61.3272
-290.471
-305.131
39.4456
-277.657
-349.268
16.7296
-251.9
-378.577
-4.47405
-218.65
-390.124
-22.0072
-184.649
-383.073
-33.3084
-157.183
-360.462
-35.9994
-141.017
-329.331
-31.0495
-303.61
-20.6957
547.696
0.169006
0.606601
549.537
-2.14103
1.88077
552.539
-8.79133
3.24374
556.428
-21.6854
4.7525
560.542
-42.1991
6.32315
564.024
-70.0648
7.89959
566.099
-101.968
9.68978
565.36
-131.45
11.6758
559.44
-151.837
13.6366
545.518
-160.359
15.9476
520.635
-156.888
19.1731
482.671
-143.561
23.042
431.037
-124.957
26.779
361.443
-102.585
32.0982
261.056
-70.594
43.4154
121.898
-29.9215
61.8556
-43.1609
-6.04028
88.3237
-201.467
-23.0071
110.49
-322.285
-78.2183
111.892
-397.98
-148.952
94.1492
-438.006
-217.34
68.6672
-453.048
-276.732
41.9403
-450.067
-324.647
16.5859
-433.366
-359.547
-6.39833
-407.209
-379.134
-25.5939
-376.977
-381.746
-38.6481
-349.305
-368.051
-42.8494
-330.815
-342.025
-37.235
-323.94
-311.032
-25.4972
-289.636
-14.1601
547.281
-0.618632
0.463551
548.224
-4.56894
1.49391
549.77
-13.0314
2.70291
551.62
-27.8209
4.2918
553.467
-50.258
6.22121
555.111
-80.0162
8.32353
556.118
-113.945
10.9888
554.026
-143.727
14.3756
543.962
-159.497
17.7127
521.442
-159.487
21.6491
483.589
-145.601
26.5944
429.397
-119.913
30.5933
355.414
-85.8167
34.9112
246.332
-39.6933
46.2748
88.5718
18.8507
68.3673
-105.913
58.9372
105.613
-294.368
43.8803
138.492
-434.436
-20.671
137.73
-522.129
-100.394
109.927
-572.412
-173.761
75.1866
-598.677
-234.35
43.3699
-608.015
-283.037
15.7038
-604.234
-320.311
-8.10364
-590.147
-345.596
-28.057
-569.19
-357.384
-42.7259
-546.317
-355.185
-49.4849
-527.646
-340.387
-46.5225
-518.771
-316.327
-34.9076
-519.833
-289.131
-21.1219
-272.32
-10.6646
546.919
-0.924908
0.363148
546.763
-5.60818
1.20661
546.333
-14.8858
2.29351
545.215
-30.708
4.01065
543.473
-54.7619
6.25786
541.793
-86.8404
8.5291
540.301
-124.715
12.2746
534.34
-156.718
18.942
513.866
-164.258
25.235
473.214
-150.294
31.4785
412.634
-122.362
37.3835
330.891
-79.2439
41.1524
213.21
-18.8375
50.8109
41.2333
56.8527
75.5102
-173.826
110.672
123.229
-379.659
100.356
164.339
-529.949
32.8519
161.241
-624.294
-50.2831
123.964
-683.871
-122.311
81.593
-721.207
-180.205
43.9136
-743.346
-225.349
13.237
-754.318
-260.731
-11.3106
-756.254
-287.252
-31.1816
-750.119
-304.661
-47.154
-738.68
-311.916
-56.9648
-726.249
-309.309
-58.3663
-718.061
-297.861
-50.9013
-718.476
-279.121
-37.1063
-726.094
-257.471
-24.2479
-244.922
-15.2721
546.624
-0.749195
0.306471
545.095
-5.0529
0.979049
541.899
-13.5914
1.8995
536.26
-28.7451
3.67026
528.579
-52.9966
5.92637
520.615
-86.3708
7.5194
512.06
-129.834
13.7171
492.347
-166.822
29.8426
443.586
-156.984
41.4634
366.204
-120.364
47.4719
268.409
-78.6281
54.1889
138.958
-10.2094
60.6172
-39.1285
71.5777
87.8447
-257.168
132.888
142.049
-461.751
129.607
185.553
-608.178
70.5943
176.046
-703.285
-5.41127
133.311
-766.861
-70.993
84.3663
-813.228
-119.92
44.1706
-846.703
-156.86
10.3244
-871.416
-184.445
-16.1282
-889.828
-206.195
-36.2239
-902.123
-222.583
-52.5602
-908.045
-233.766
-65.1528
-909.923
-239.06
-71.0438
-910.826
-238.665
-69.8035
-914.132
-232.7
-62.0882
-922.975
-220.834
-49.7835
-935.496
-205.72
-39.3818
-196.808
-31.3433
546.312
-0.175611
0.331352
543.156
-2.5771
0.739409
536.49
-8.12954
1.27178
524.368
-19.1293
2.59345
506.214
-38.718
4.01764
484.169
-67.8355
3.72982
446.926
-110.32
17.8699
369.636
-148.178
58.5912
250.179
-116.033
78.457
117.534
-58.1533
70.6271
-22.5403
-12.4794
74.3234
-188.058
46.7237
108.954
-376.197
95.1426
164.755
-545.269
106.501
195.384
-665.878
73.0167
176.928
-747.063
23.9316
127.614
-807.94
-21.8095
77.2001
-856.742
-57.8904
35.8556
-899.286
-81.6586
4.61934
-936.845
-97.6485
-21.3897
-970.604
-109.827
-40.8179
-999.493
-119.141
-58.3314
-1025.18
-125.509
-71.6566
-1046.47
-131.05
-81.6097
-1065.28
-134.892
-85.4152
-1082.38
-136.396
-85.2533
-1098.06
-135.149
-82.1451
-1114.66
-130.306
-74.2907
-1130.61
-122.737
-67.1735
-118.474
-58.8284
546.5
0.510574
543.84
0.212963
536.153
-0.285326
518.554
-1.32957
483.79
-3.66896
428.372
-12.1524
305.894
12.2625
59.0785
98.5848
-198.598
141.638
-369.843
113.308
-502.052
120.081
-605.328
150.3
-675.829
165.764
-718.539
149.115
-755.874
110.142
-796.456
64.3351
-838.204
19.959
-878.587
-17.2133
-922.957
-36.9082
-969.181
-51.1274
-1015.16
-63.816
-1055.17
-79.3577
-1092.94
-88.0102
-1127.96
-96.2083
-1162.22
-100.706
-1194.25
-104.437
-1222.26
-107.326
-1247.97
-104.871
-1268.98
-101.857
-93.4498
529.846
7.23674
15.3507
118.638
25.7389
53.8018
120.094
122.268
123.243
-18.8786
104.688
7.90966
24.9219
-11.7741
-19.779
2.68305
13.7456
3.91446
3.66228
3.71381
3.83471
-3.41595
7.06916
-1.03892
-8.49585
5.88759
-13.2466
2.25461
-1.74376
-2.78551
15.5231
-1.28107
-21.6091
23.3834
-1.95814
1.46595
-2.50394
-28.0122
29.355
-1.84463
3.00673
-2.72003
-32.9198
33.9845
-1.65735
3.31341
-2.56258
-36.9093
37.8127
-1.49112
3.15091
-2.30541
-40.3458
41.1321
-1.3352
2.85478
-2.15613
-43.2737
43.8957
-1.14187
2.67646
-2.31781
-45.3592
45.6747
-0.849699
2.85246
-45.8519
-10.5283
181.127
-3.43078
14.7608
-45.3249
-45.6254
-45.121
699.216
-22.0012
68.2528
-179.313
-175.528
-178.211
-174.743
691.693
-22.1039
64.3726
687.056
-24.0412
61.5072
686.139
-27.0348
59.6872
689.571
-30.8997
58.5913
697.84
-35.4253
57.9001
711.147
-40.1878
57.2656
729.308
-44.6539
56.261
751.717
-48.2052
54.6825
777.6
-50.7942
52.0252
-51.733
49.3942
533.145
12.1346
13.6646
122.46
41.3252
46.5061
125.058
125.075
127.052
-15.996
-14.5121
112.486
19.2159
21.2827
-9.62603
-9.19955
-23.4615
20.3268
10.6424
11.3229
-9.55078
4.39707
5.29978
-6.95522
-5.29583
12.1259
-17.8643
1.58001
6.24559
-7.41165
-1.89952
19.359
-0.852833
6.79184
-23.0974
24.1772
-7.99771
0.982593
-1.86702
6.63726
-27.1245
28.0389
-7.92101
2.24045
-2.17989
6.15688
-30.6297
31.4521
-7.44613
2.64908
-2.18029
5.65117
-33.8119
34.5677
-6.89736
2.67239
-2.05663
5.12159
-36.7352
37.4214
-6.28819
2.5386
-1.974
4.42535
-39.3238
39.8925
-5.46306
2.4448
-2.10297
3.37904
-41.3068
41.6613
-4.21725
2.58812
-42.1588
-9.23281
7.6526
167.5
-12.2332
13.0527
-41.2848
-42.057
-41.2193
654.976
-50.5908
61.0965
-166.759
-160.27
-166.487
-160.536
653.749
-48.0203
59.0231
652.623
-49.5548
57.4996
653.237
-53.8907
56.5506
656.843
-60.4799
56.0022
664.324
-68.7246
55.6417
676.203
-77.7316
55.1919
692.535
-86.3468
54.252
713.027
-93.4107
52.588
736.85
-98.3536
49.7621
-99.9356
46.6072
537.471
14.1824
11.2677
127.924
45.003
36.2912
130.267
129.422
131.373
-21.5514
-11.5908
123.09
22.2221
15.7675
-6.65468
-12.3815
48.8441
34.7002
27.4517
28.9411
28.1811
29.6649
-118.152
-14.7328
-11.5786
-13.676
-7.62416
-5.93172
-7.0319
-4.01207
-7.24984
-6.65623
7.16909
6.75512
4.00341
1.03136
2.41319
-2.7791
3.58122
-3.2846
-0.953823
-22.3792
10.194
1.72072
-10.5039
-2.03693
23.0149
0.0735856
9.64486
-24.5314
-0.103666
24.939
-10.0158
-0.949982
10.4476
-25.9545
26.2599
-10.9325
1.13329
-1.44078
10.777
-27.1984
27.5391
-11.4204
1.74537
-1.66809
10.5523
-28.6663
29.0749
-11.3271
2.0354
-1.74147
10.0757
-30.3807
30.8362
-10.9263
2.13751
-1.72334
9.38792
-32.238
32.7093
-10.2625
2.12753
-1.70945
8.33075
-34.099
34.5439
-9.18264
2.11746
-1.82037
6.69093
-35.7766
36.1426
-7.48137
2.24571
-36.9024
-7.6929
17.4051
147.779
-22.706
11.038
-35.9035
-36.9781
-36.0252
591.552
-84.9574
53.4244
-148.405
-141.266
-149.348
-142.829
596.788
-77.9797
53.5917
599.699
-77.2829
53.8805
602.543
-81.6214
54.2147
607.179
-90.0865
54.5184
614.954
-101.577
54.6672
626.728
-114.579
54.405
642.812
-127.165
53.2639
663.08
-137.557
50.9694
686.955
-144.785
47.1526
-147.03
42.6818
541.699
14.0129
8.92301
533.615
41.6022
27.258
131.15
77.4744
52.1668
-21.6631
-29.0049
-19.8308
-26.0373
133.847
132.572
134.576
-42.2351
-14.7616
132.955
35.327
19.8822
-6.38871
-17.5467
-34.4843
36.0104
14.9672
7.44548
-1.84371
-7.89793
-12.2911
15.0481
5.13044
1.86449
0.246696
4.51534
-9.35977
8.47912
-4.29469
0.416081
12.7983
-31.1038
1.40364
30.4213
-11.8845
-1.62937
0.278855
10.3687
-29.4724
-0.324701
29.3406
-10.1864
-0.404831
10.4476
-29.0789
28.9948
-10.4527
0.498401
-0.757948
11.6583
-28.6626
28.5463
-11.7232
0.940752
-0.967399
12.5775
-28.2487
28.1871
-12.7518
1.20357
-1.1349
12.908
-28.1373
28.1671
-13.2124
1.40986
-1.26135
12.8119
-28.3812
28.4893
-13.2243
1.56626
-1.33933
12.3272
-28.9117
29.0794
-12.8203
1.66524
-1.40534
11.3279
-29.6636
29.8796
-11.8862
1.74842
-1.52601
9.66814
-30.6102
30.8782
-10.3019
1.89269
-31.6739
-6.28853
28.3887
128.124
-33.7373
9.21617
-30.8833
-31.942
-31.1909
523.799
-119.287
47.3262
-129.611
-123.717
-131.849
-126.481
531.002
-107.821
49.5395
535.051
-104.537
51.4891
538.347
-108.689
53.0279
542.979
-119.094
54.1756
550.556
-134.033
54.827
562.172
-151.159
54.5822
578.298
-167.649
52.7249
598.892
-181.174
48.9964
623.631
-190.547
43.2435
-192.82
36.4957
544.828
12.4582
6.81723
542.732
34.9763
19.9572
136.24
58.3881
34.8741
136.96
136.521
137.309
-28.7735
138.047
23.7194
11.1477
-37.2925
-10.9641
147.378
27.923
14.7005
-141.725
-7.77561
-2.95308
-38.7866
39.8524
3.42438
6.23994
1.07792
-1.38589
-41.2416
40.9139
1.63606
-0.996725
8.38347
-0.130398
-151.576
144.62
-27.2838
0.596733
8.91622
7.98296
8.51239
9.59229
-139.043
0.294094
135.469
-34.2519
-0.109447
9.27289
9.54904
9.25155
9.61011
-0.550923
-133.03
131.555
-36.9581
1.0162
9.64133
9.35017
9.3772
10.2972
-1.19482
-130.251
129.042
-40.5973
2.0272
10.507
9.9937
10.1842
11.6098
-1.51307
-127.523
125.919
-45.6536
2.58955
11.8607
11.2369
11.4736
12.8159
-1.83784
-124.114
122.397
-50.325
3.08303
12.9897
12.4122
12.581
13.56
-2.3215
-120.678
119.132
-53.4698
3.74421
13.6413
13.1565
13.2375
13.8415
-2.91696
-117.661
116.35
-54.9062
4.54811
13.842
13.4511
13.4535
13.6705
-3.53568
-115.153
114.115
-54.5771
5.38874
13.5787
13.3017
13.2144
12.9749
-4.1977
-113.271
112.648
-52.2817
6.27854
12.7704
12.6403
12.4442
11.7291
-4.95461
-112.352
112.381
-48.1021
7.29486
11.4212
11.4441
11.1482
38.6126
-112.807
-5.57833
113.718
-42.0429
8.11018
461.239
-144.304
44.88
-114.436
-110.524
-117.737
-114.173
463.244
-131.19
48.4313
463.615
-127.342
51.4052
464.114
-132.942
53.8147
466.617
-146.512
55.7425
472.736
-165.54
56.7328
483.556
-187.045
55.7863
499.533
-207.498
51.8576
520.696
-224.047
45.2675
546.887
-235.356
36.368
-236.438
26.289
546.839
10.1956
5.06813
548.039
27.3357
14.5165
554.124
41.8688
23.9856
568.411
49.5434
32.3501
-19.2858
-20.8852
-17.8011
-19.2164
147.663
40.1851
35.7768
-20.6048
-18.1774
-18.8731
-16.5388
146.304
147.178
146.022
-11.4497
-5.29536
150.178
6.95624
7.28522
7.17057
-3.34267
-150.954
150.305
-7.87993
4.71466
572.924
-89.5397
12.0596
23.8632
27.5686
22.1337
25.6631
-147.952
-146.778
-147.575
-146.583
560.449
-119.559
9.47882
31.9416
33.3617
30.0348
31.5012
552.412
-140.664
10.0849
36.1516
37.3557
34.2619
35.397
544.62
-158.302
11.4456
40.1991
41.8774
38.0576
39.5484
533.853
-174.575
12.708
44.9533
46.7241
42.4111
44.0159
519.611
-188.229
14.3778
49.3773
50.7409
46.5293
47.7991
502.642
-197.718
16.9996
52.5357
53.3273
49.5278
50.2748
483.831
-202.37
20.7055
54.1477
54.3355
51.0754
51.2526
464.192
-201.846
25.3703
54.1341
53.614
51.0768
50.5929
445.027
-195.975
30.9067
52.3508
51.0929
49.4154
48.2513
427.534
-185.458
36.7708
48.9355
47.0929
46.2308
44.5244
412.968
-170.867
42.0295
44.0616
42.0285
41.6091
39.5526
402.805
-154.131
47.0479
393.644
-143.761
51.2619
385.747
-143.084
54.7763
380.207
-152.587
58.0785
378.428
-170.646
60.6865
381.723
-194.664
60.7364
391.143
-221.373
56.6819
407.08
-246.387
48.253
429.51
-265.862
37.0376
457.78
-278.095
24.0162
-275.678
10.1872
547.907
7.74254
3.7039
550.605
19.9166
10.5623
556.672
28.2648
17.0223
567.013
29.4796
22.3954
579.104
17.2596
24.5528
585.114
-12.467
21.8135
-3.21335
1.47287
-3.05888
1.36462
583.04
-51.2127
17.5351
9.15844
14.1225
8.53565
13.1825
575.765
-88.8595
13.693
568.683
-118.522
12.2835
562.452
-140.717
12.5935
555.07
-157.805
13.616
544.123
-171.193
14.9463
528.442
-180.871
16.8923
508.032
-186.623
19.8866
483.526
-188.591
24.1407
455.898
-186.873
29.6365
426.289
-181.313
36.1499
395.856
-172.483
42.9208
366.342
-161.385
48.9301
339.851
-150.1
54.2786
316.655
-145.273
59.0419
297.349
-150.039
63.6153
283.063
-165.044
67.4614
275.351
-189.5
68.1284
275.803
-221.092
63.2786
285.186
-255.211
52.5696
303.142
-285.174
37.597
328.581
-306.087
21.0374
359.091
-316.052
4.14567
-306.291
-11.7445
548.321
5.43352
2.68826
551.456
13.3099
7.74135
557.036
17.1119
12.4344
565.112
14.1483
16.308
573.726
0.438581
18.2848
578.908
-25.7193
17.7177
579.338
-59.1289
16.1548
576.332
-92.8065
14.8159
572.053
-121.187
14.62
566.71
-142.78
15.4108
558.841
-158.038
16.7805
546.448
-167.65
18.6228
528.108
-172.163
21.2335
503.414
-172.582
25.0434
472.682
-170.162
30.3903
436.689
-165.71
37.3687
396.059
-158.816
45.5527
351.709
-149.746
54.0884
306.07
-140.385
61.7957
262.298
-133.251
68.6019
222.855
-133.724
74.386
190.426
-145.147
78.3312
167.553
-169.179
78.1372
156.251
-204.935
71.3263
157.433
-247.96
57.6791
170.578
-290.622
38.8179
193.516
-323.734
17.4713
222.639
-341.953
-3.4344
253.353
-343.694
-21.4578
-322.683
-34.734
548.329
3.45274
1.95198
551.326
7.75527
5.74034
556.156
8.08071
9.35962
562.587
2.11227
12.501
569.244
-12.8018
14.6073
573.882
-37.3719
15.4221
575.596
-68.0543
15.7248
574.726
-99.4311
16.1787
571.863
-126.4
17.2164
566.527
-146.368
18.8319
557.275
-158.622
20.8948
542.18
-163.16
23.4689
519.745
-161.011
26.9151
489.297
-154.615
31.8462
450.918
-146.913
38.9276
404.563
-138.652
48.4713
349.695
-127.959
60.426
286.372
-114.504
73.1812
219.022
-102.938
84.3426
155.376
-98.9437
91.8931
101.986
-108.061
94.2405
63.1006
-132.935
90.5626
39.8939
-172.879
80.0384
31.8467
-223.651
62.9309
37.8685
-277.812
40.6543
55.8246
-325.523
15.3158
82.1797
-357.142
-9.8501
111.276
-366.49
-31.2599
136.726
-353.294
-45.3468
-321.448
-50.5937
548.103
1.86584
1.41875
550.65
3.32585
4.31612
554.564
0.936091
7.26326
559.582
-7.39984
10.07
564.77
-23.5577
12.4525
568.738
-47.7849
14.3348
570.826
-77.4622
16.1719
570.898
-107.885
18.2587
568.388
-133.556
20.6612
562.052
-151.029
23.3607
550.168
-158.789
26.3665
530.79
-156.39
29.7826
502.217
-145.766
34.1396
463.662
-131.814
40.7328
414.19
-118.041
51.197
350.28
-101.414
66.9
270.328
-79.7549
86.1679
180.481
-57.9175
104.147
93.4389
-46.313
114.648
20.8743
-53.3454
114.36
-31.568
-81.4652
104.686
-64.0271
-127.073
88.1881
-79.903
-184.212
66.8545
-82.3912
-246.388
42.0696
-73.6337
-305.462
14.438
-55.9787
-351.676
-13.6516
-33.5232
-375.524
-37.8239
-12.3119
-370.611
-53.8598
1.62852
-339.904
-59.1655
-305.49
-52.7798
547.784
0.697748
1.02679
549.679
0.0567978
3.28233
552.523
-4.43334
5.79382
556.074
-14.6684
8.49362
559.709
-32.1117
11.2713
562.522
-56.8348
14.1741
564.111
-86.9243
17.5936
564.203
-117.865
21.5646
561.037
-142.441
25.6591
552.198
-156.011
29.7517
535.706
-156.986
33.8844
509.366
-145.045
38.1037
471.271
-124.503
43.7183
419.499
-101.915
54.1005
348.52
-76.2336
72.6994
253.488
-42.7412
98.2983
143.423
-6.20144
124.936
37.427
18.3494
140.39
-49.0788
15.5726
136.774
-109.413
-17.1996
118.646
-146.563
-69.7409
94.3868
-167.51
-132.366
68.4015
-178.427
-198.536
41.941
-182.092
-263.279
14.174
-178.705
-319.709
-14.7918
-169.649
-358.583
-40.9937
-158.098
-370.941
-59.5122
-148.88
-352.332
-65.6227
-141.6
-312.394
-61.086
-279.301
-43.5168
547.432
-0.0549616
0.728297
548.571
-2.04716
2.49322
550.152
-7.99813
4.7175
551.903
-19.5619
7.46301
553.451
-38.1623
10.7588
554.136
-63.9359
14.7832
553.998
-95.9732
20.1982
553.186
-129.591
26.8926
547.977
-152.91
33.3522
533.879
-159.41
39.1253
508.847
-149.698
44.3693
470.523
-125.46
49.431
416.127
-93.507
58.4539
338.643
-56.2534
78.2286
230.951
-9.52495
109.438
103.659
44.9707
145.254
-15.7552
84.7809
167.02
-106.272
87.5132
159.282
-165.677
54.482
130.735
-200.574
-3.77489
97.0075
-221.186
-71.9344
66.4498
-237.713
-139.384
39.3775
-254.146
-203.498
13.2512
-269.118
-262.508
-13.9959
-280.455
-310.417
-40.8288
-287.676
-339.391
-61.6829
-291.723
-342.143
-71.8176
-296.215
-316.527
-67.0927
-300.305
-275.11
-54.9804
-246.972
-35.071
547.14
-0.410312
0.494248
547.425
-2.94048
1.84922
547.419
-9.53729
3.86383
546.723
-21.5785
6.74229
545.085
-40.8937
10.6575
541.758
-68.0133
15.9821
537.61
-103.917
24.4111
534.507
-143.527
35.9593
524.167
-163.37
45.9469
498.249
-155.252
53.1926
456.436
-129.686
59.2724
396.505
-91.1519
66.9728
311.535
-43.6801
86.1573
192.236
17.3882
121.304
52.9933
87.3882
165.614
-69.8418
139.392
192.776
-153.546
147.881
181.949
-199.043
115.811
141.427
-220.437
61.5977
96.2861
-232.153
-7.6307
59.8921
-247.172
-76.9998
33.5236
-272.922
-136.055
11.0343
-306.847
-188.613
-12.428
-342.992
-236.139
-37.7026
-376.826
-272.798
-60.9434
-405.409
-293.532
-75.8426
-426.761
-293.131
-79.0924
-444.736
-268.254
-68.1794
-460.457
-231.081
-53.0224
-207.963
-36.6982
546.919
-0.388436
0.320975
546.277
-2.52272
1.27421
544.344
-8.68309
3.0477
540.223
-19.727
6.01293
533.345
-38.5402
10.5653
521.937
-66.34
17.4172
507.858
-107.369
31.3124
496.528
-155.821
53.3522
470.506
-164.64
68.6053
417.504
-129.467
74.7179
344.554
-85.1206
82.8295
246.472
-33.4311
101.298
117.73
33.4078
139.73
-22.1052
109.546
189.801
-135.835
166.605
220.01
-200.774
178.022
202.302
-220.345
148.87
151.984
-211.577
97.3867
94.376
-196.019
41.9325
48.8608
-195.536
-19.6061
22.2894
-220.699
-75.9079
8.03832
-269.912
-115.493
-7.86788
-333.357
-148.64
-29.5965
-399.528
-181.232
-54.3098
-462.552
-207.133
-73.8886
-517.513
-222.763
-85.7633
-559.502
-223.882
-89.7741
-593.055
-204.752
-80.362
-620.791
-176.127
-66.8849
-158.092
-54.5175
546.707
0.012749
0.236056
545.587
-0.997915
0.475676
541.915
-5.25543
1.67593
533.407
-12.7279
4.2892
517.02
-27.0159
9.15711
486.586
-49.4483
17.5513
440.393
-86.7403
43.555
386.173
-135.489
92.3539
312.243
-128.242
115.795
215.935
-73.9658
111.498
101.421
-21.4472
125.566
-28.0225
34.0719
171.401
-147.157
93.1409
224.479
-227.126
138.175
246.775
-256.641
152.751
220.17
-241.238
132.849
157.264
-191.858
86.9549
89.9125
-128.784
37.1016
33.735
-83.1555
6.30716
-4.45207
-84.7207
-24.8572
-13.9065
-139.718
-58.2421
-3.5049
-229.112
-74.1995
-10.8599
-331.576
-83.4796
-35.1663
-433.872
-98.8309
-62.3232
-532.277
-114.414
-79.9865
-621.105
-125.508
-93.7932
-691.244
-127.92
-108.373
-747.834
-118.134
-104.875
-792.39
-103.073
-96.0386
-91.9394
-88.1136
547.229
0.252422
548.629
-1.96982
545.724
-2.42688
533.757
-1.84455
501.646
1.73118
430.7
9.64567
297.605
58.7356
100.054
160.522
-86.1797
199.445
-226.699
179.908
-334.535
206.749
-394.607
244.732
-395.133
259.598
-338.68
230.859
-241.855
166.005
-124.658
80.0357
-20.6326
3.31593
46.3717
-46.3798
90.3743
-73.9157
83.0483
-68.3317
-20.3561
-18.9779
-171.413
-3.24015
-312.274
-31.3532
-444.046
-63.7621
-574.891
-84.4707
-699.556
-105.299
-804.136
-130.86
-893.097
-134.264
-960.788
-137.296
-134.1
535.704
5.70017
17.816
126.115
18.9462
58.6937
126.855
129.2
129.708
-27.8547
119.703
5.54566
28.7239
-15.4264
-27.2798
25.7323
1.62294
15.3514
0.801805
1.41708
0.243367
-2.45004
-16.5214
9.68072
-1.56313
-8.96834
17.3762
3.18849
-19.9367
-1.41042
21.0057
-2.84532
-1.96485
-24.7236
26.0169
-1.50022
2.17154
-4.2543
-29.7072
30.8379
-1.47146
4.59559
-4.86837
-33.9078
34.8325
-1.36519
5.30947
-4.76368
-37.3598
38.1314
-1.25184
5.2445
-4.41366
-40.2627
40.9144
-1.13476
4.89722
-4.17271
-42.6727
43.1819
-0.980892
4.64491
-4.35005
-44.3993
44.6763
-0.741384
4.81484
-44.9291
-18.5855
178.318
-3.13176
22.0533
-44.4921
-44.8221
-44.4063
697.531
-20.0356
92.9152
-177.261
-174.117
-176.788
-173.958
693.368
-19.8798
88.4488
691.118
-21.2504
85.0408
691.657
-23.5555
82.7355
695.714
-26.6833
81.2442
703.874
-30.4932
80.2497
716.449
-34.6539
79.3449
733.396
-38.7393
78.0319
754.261
-42.2185
76.0018
778.477
-45.0157
72.796
-46.6469
69.2318
537.707
9.81871
16.1871
128.059
31.5635
51.9903
129.536
130.491
131.55
-24.1375
-10.2808
123.322
13.8999
25.267
-13.4902
-5.85833
30.3828
54.0513
27.6045
28.366
29.1909
29.8279
-15.9285
-12.7578
-14.9626
-118.478
-6.64273
-5.16409
-6.12588
-7.69701
-3.58563
-6.79429
7.04729
11.034
1.61713
0.915798
-2.10597
3.00391
-1.30385
-2.1129
-20.7261
6.41341
5.6049
-6.58076
-6.1139
21.4168
2.10084
4.95581
-23.311
-5.84205
23.9906
-1.88598
-1.38011
5.22448