/*--------------------------------*- C++ -*----------------------------------*\
  =========                 |
  \\      /  F ield         | OpenFOAM: The Open Source CFD Toolbox
   \\    /   O peration     | Website:  https://openfoam.org
    \\  /    A nd           | Version:  10
     \\/     M anipulation  |
\*---------------------------------------------------------------------------*/
FoamFile
{
    format      ascii;
    class       volVectorField;
    location    "200";
    object      U;
}
// * * * * * * * * * * * * * * * * * * * * * * * * * * * * * * * * * * * * * //

dimensions      [0 1 -1 0 0 0 0];

internalField   nonuniform List<vector> 
27507
(
(13.8842 0.0828278 0.0919284)
(13.0514 0.317999 0.354504)
(10.978 0.354111 0.392094)
(4.94977 0.49894 0.515317)
(0.996284 -0.0839375 -0.257695)
(5.43138 -0.341799 -0.0618765)
(9.18686 -0.376554 0.069641)
(11.9419 -0.334974 0.110171)
(14.0339 -0.291072 0.11336)
(15.7716 -0.257355 0.103259)
(17.3132 -0.228285 0.0906072)
(18.64 -0.194165 0.0841211)
(19.5289 -0.142953 0.0936639)
(19.1732 -0.115461 0.241901)
(18.2397 -0.185914 0.393291)
(17.9021 -0.212368 0.350859)
(17.6781 -0.248918 0.3274)
(17.5749 -0.291673 0.315442)
(17.6017 -0.340731 0.309225)
(17.7678 -0.393992 0.305441)
(18.0826 -0.446682 0.301818)
(18.5305 -0.493339 0.295493)
(19.1397 -0.526768 0.286367)
(19.7289 -0.550189 0.267276)
(20.8275 -0.543573 0.256318)
(13.8879 0.219358 0.0808635)
(13.2405 0.803589 0.297308)
(11.6329 1.51874 0.333497)
(7.15184 3.55672 0.444252)
(2.96891 -1.48633 -0.172595)
(6.95991 -2.57136 -0.0481383)
(9.29368 -2.79937 0.0489465)
(11.0858 -2.6473 0.0842187)
(12.6647 -2.40435 0.0928279)
(14.1159 -2.17964 0.089731)
(15.4676 -1.95858 0.0823656)
(16.6659 -1.68277 0.0780433)
(17.5372 -1.27853 0.0852829)
(17.4491 -0.795495 0.207199)
(16.8356 -0.701185 0.3449)
(16.7581 -0.700276 0.320892)
(16.6822 -0.765407 0.307891)
(16.6566 -0.866843 0.301676)
(16.7156 -0.995671 0.298758)
(16.8843 -1.14247 0.296784)
(17.182 -1.29235 0.294033)
(17.6025 -1.42751 0.287734)
(18.175 -1.52805 0.277238)
(18.737 -1.5937 0.256317)
(19.7989 -1.58822 0.236284)
(13.9097 0.290219 0.065746)
(13.4825 0.970434 0.219862)
(12.5981 1.92362 0.237628)
(10.6481 4.28076 0.286378)
(0.484015 0.56875 0.0404608)
(8.2364 -3.48104 -0.0662498)
(9.36928 -3.70806 0.00936346)
(9.92479 -4.0561 0.0480501)
(10.5007 -4.08498 0.0646742)
(11.2389 -3.92724 0.0717876)
(12.1052 -3.70504 0.0727942)
(13.0422 -3.42032 0.0700733)
(13.9716 -3.01338 0.0682559)
(14.7722 -2.40553 0.0735886)
(14.9735 -1.6463 0.162506)
(14.8353 -1.39004 0.289416)
(15.0218 -1.3146 0.28949)
(15.1116 -1.35535 0.29075)
(15.1819 -1.47786 0.292671)
(15.2926 -1.66363 0.29438)
(15.487 -1.89002 0.294832)
(15.795 -2.12787 0.292739)
(16.2176 -2.34374 0.284626)
(16.7901 -2.50615 0.269231)
(17.3553 -2.60518 0.241342)
(18.437 -2.60341 0.212903)
(13.9491 0.300717 0.0513147)
(13.6916 0.947043 0.160487)
(13.4132 1.90506 0.330527)
(13.0405 3.43912 0.30951)
(13.678 5.99083 0.291298)
(5.27853 3.00229 0.132176)
(10.127 -2.8426 -0.252108)
(11.8062 -4.22011 -0.0612684)
(11.4502 -3.58912 -0.00706099)
(11.1854 -3.89065 0.0207834)
(10.8226 -4.3959 0.032581)
(10.5809 -4.66748 0.0399559)
(10.5623 -4.721 0.0465058)
(10.7404 -4.63835 0.0512324)
(11.0701 -4.42603 0.0535778)
(11.5117 -4.03756 0.0554769)
(12.0313 -3.42336 0.0603217)
(12.4936 -2.60954 0.116381)
(12.7643 -2.19221 0.244876)
(13.0565 -2.00912 0.269213)
(13.2077 -1.99741 0.283287)
(13.3116 -2.12551 0.291918)
(13.4401 -2.35943 0.297604)
(13.6443 -2.65692 0.30035)
(13.9587 -2.97222 0.297573)
(14.384 -3.26138 0.283203)
(14.9669 -3.47619 0.25639)
(15.5517 -3.60175 0.21504)
(16.6804 -3.58511 0.174483)
(13.9783 0.27595 0.0384878)
(13.8718 0.806903 0.113825)
(13.8243 1.43988 0.206102)
(14.0852 2.10294 0.31181)
(14.691 2.78062 0.232114)
(16.2304 2.4235 0.128002)
(17.1229 -0.419136 0.0590874)
(15.0889 -2.64745 -0.0024075)
(13.8389 -3.06385 -0.0129437)
(13.309 -3.22169 3.09916e-05)
(12.9299 -3.60355 0.00483482)
(12.4522 -4.10705 0.00608251)
(11.9431 -4.50598 0.0120946)
(11.4963 -4.73653 0.0234298)
(11.1313 -4.81431 0.0376634)
(10.8472 -4.73738 0.0525701)
(10.6592 -4.48223 0.0688186)
(10.6089 -4.05471 0.0871617)
(10.7641 -3.4582 0.103004)
(10.9517 -2.92311 0.232774)
(11.076 -2.66812 0.270825)
(11.1126 -2.63007 0.290855)
(11.1406 -2.77777 0.303966)
(11.2226 -3.05749 0.314432)
(11.3891 -3.42046 0.318934)
(11.6759 -3.81499 0.308742)
(12.0935 -4.17326 0.274989)
(12.688 -4.42795 0.226067)
(13.3045 -4.56699 0.164094)
(14.4873 -4.50802 0.109226)
(13.995 0.23082 0.0283044)
(13.9821 0.633334 0.0814667)
(14.0354 1.02006 0.137543)
(14.2882 1.30305 0.192136)
(14.8212 1.12808 0.209474)
(15.3532 0.68437 0.109268)
(15.5485 -0.719921 0.0672225)
(14.8637 -2.00187 0.0560778)
(14.4228 -2.59254 0.0388467)
(14.1424 -3.00471 0.0384816)
(13.8974 -3.39673 0.0389713)
(13.5589 -3.79346 0.0406928)
(13.1053 -4.13449 0.0495856)
(12.5684 -4.37499 0.0680454)
(11.9782 -4.50024 0.0951036)
(11.3647 -4.49914 0.128745)
(10.7577 -4.36594 0.167847)
(10.1868 -4.12141 0.20704)
(9.67355 -3.78849 0.239588)
(9.33379 -3.38008 0.274766)
(9.04366 -3.16155 0.302012)
(8.8047 -3.15819 0.322937)
(8.6341 -3.34714 0.34472)
(8.55842 -3.70101 0.364041)
(8.61187 -4.17424 0.356726)
(8.84564 -4.6707 0.312246)
(9.28161 -5.08298 0.236893)
(9.92965 -5.34077 0.154108)
(10.6021 -5.45579 0.0705586)
(11.8141 -5.31198 0.00869488)
(14.0041 0.178124 0.020608)
(14.0393 0.46483 0.0587876)
(14.137 0.683368 0.0958769)
(14.3617 0.762124 0.12872)
(14.7106 0.506833 0.139247)
(15.0152 -0.181607 0.118626)
(15.0588 -1.0773 0.0908901)
(14.8703 -1.89981 0.0706923)
(14.6358 -2.50232 0.0618453)
(14.4357 -2.94508 0.0619704)
(14.2173 -3.31099 0.0655404)
(13.8961 -3.63068 0.0725304)
(13.4278 -3.89198 0.0863327)
(12.8119 -4.08131 0.109343)
(12.0714 -4.19307 0.141428)
(11.2369 -4.21619 0.180828)
(10.3328 -4.14042 0.225344)
(9.37552 -3.97547 0.268963)
(8.39454 -3.7551 0.305736)
(7.49189 -3.51205 0.33937)
(6.71116 -3.39354 0.369272)
(6.06602 -3.47488 0.404447)
(5.55018 -3.80188 0.432472)
(5.21704 -4.33546 0.424462)
(5.15974 -4.96316 0.359014)
(5.42168 -5.54729 0.249599)
(5.98055 -5.95483 0.12672)
(6.73738 -6.15569 0.0182572)
(7.49215 -6.18668 -0.0704821)
(8.65675 -5.90077 -0.112815)
(14.0079 0.126289 0.0149963)
(14.0625 0.311695 0.042989)
(14.1713 0.414137 0.0692488)
(14.3627 0.375606 0.0916733)
(14.6176 0.0865484 0.101985)
(14.8332 -0.499277 0.0972228)
(14.9068 -1.23209 0.0870839)
(14.8445 -1.94358 0.0789138)
(14.7166 -2.51239 0.0769646)
(14.5585 -2.93762 0.080558)
(14.3348 -3.25363 0.088428)
(13.9801 -3.48549 0.101628)
(13.444 -3.64822 0.122702)
(12.7108 -3.75857 0.153468)
(11.7966 -3.8266 0.194343)
(10.7229 -3.84075 0.243994)
(9.49093 -3.78475 0.30046)
(8.08595 -3.64674 0.360657)
(6.55479 -3.45565 0.415023)
(5.01979 -3.30383 0.465549)
(3.62156 -3.3437 0.513353)
(2.44278 -3.65452 0.54271)
(1.58693 -4.24668 0.516169)
(1.16235 -5.01741 0.415106)
(1.2034 -5.7857 0.260714)
(1.65582 -6.37861 0.0917097)
(2.39284 -6.7154 -0.0558423)
(3.27096 -6.79011 -0.16193)
(4.08023 -6.63573 -0.217922)
(5.06395 -6.17971 -0.205177)
(14.0082 0.0802186 0.0110231)
(14.0645 0.180038 0.0321606)
(14.1664 0.195882 0.0521549)
(14.326 0.0790334 0.0698437)
(14.5229 -0.236125 0.0812476)
(14.6947 -0.767594 0.0850063)
(14.784 -1.41714 0.0858405)
(14.7827 -2.05687 0.0872796)
(14.7079 -2.58371 0.0921364)
(14.561 -2.96597 0.101255)
(14.3031 -3.20897 0.115398)
(13.8714 -3.33486 0.136065)
(13.2114 -3.3821 0.165142)
(12.3066 -3.39685 0.204954)
(11.1706 -3.40167 0.258226)
(9.80139 -3.36274 0.32684)
(8.10784 -3.21692 0.423542)
(6.00024 -3.0068 0.535721)
(3.61079 -2.83694 0.636889)
(1.23981 -2.84226 0.700831)
(-0.770163 -3.19411 0.705215)
(-2.21284 -3.91486 0.629974)
(-3.00323 -4.85699 0.471703)
(-3.17698 -5.80078 0.263201)
(-2.8611 -6.57462 0.0515694)
(-2.18548 -7.07716 -0.129794)
(-1.30618 -7.25685 -0.258467)
(-0.383025 -7.1042 -0.315331)
(0.370409 -6.71514 -0.297738)
(1.03766 -6.15441 -0.219938)
(14.0064 0.0422244 0.00825114)
(14.0541 0.0721255 0.0247463)
(14.1391 0.0200724 0.0409992)
(14.2667 -0.156445 0.0567668)
(14.4194 -0.499512 0.0699554)
(14.5591 -1.0128 0.0799089)
(14.6505 -1.62202 0.0891942)
(14.6763 -2.21677 0.0992546)
(14.6198 -2.69684 0.111728)
(14.4523 -3.01411 0.128544)
(14.1203 -3.15905 0.15106)
(13.5521 -3.15757 0.179773)
(12.6945 -3.07454 0.216714)
(11.549 -2.97861 0.269501)
(10.1149 -2.86248 0.352175)
(8.20934 -2.64562 0.491707)
(5.56886 -2.29559 0.681367)
(2.30238 -1.94011 0.860645)
(-1.10973 -1.90013 0.94891)
(-3.99962 -2.41213 0.904553)
(-5.99045 -3.36479 0.746824)
(-7.10453 -4.50115 0.515487)
(-7.50103 -5.59322 0.253199)
(-7.36804 -6.50973 0.00758779)
(-6.84195 -7.16583 -0.195911)
(-6.0486 -7.48691 -0.340475)
(-5.13968 -7.44041 -0.404521)
(-4.31121 -7.06914 -0.373454)
(-3.74413 -6.49643 -0.27356)
(-3.43586 -5.95904 -0.161872)
(14.0038 0.0132131 0.00630309)
(14.0374 -0.0115557 0.0195895)
(14.0989 -0.118025 0.033597)
(14.1905 -0.344239 0.0490411)
(14.2982 -0.719607 0.064549)
(14.4003 -1.24055 0.0799044)
(14.4783 -1.84249 0.0975085)
(14.5079 -2.41256 0.117675)
(14.4391 -2.83845 0.14044)
(14.2056 -3.06465 0.168166)
(13.7285 -3.08084 0.201015)
(12.926 -2.92595 0.237769)
(11.7713 -2.68784 0.287214)
(10.2832 -2.41838 0.378149)
(8.22973 -2.0441 0.555349)
(5.16176 -1.4611 0.821987)
(1.13379 -0.798468 1.10242)
(-3.32294 -0.641385 1.22833)
(-7.04128 -1.37371 1.11451)
(-9.50265 -2.6201 0.844416)
(-10.8908 -3.94619 0.53175)
(-11.5338 -5.15194 0.227534)
(-11.6555 -6.1572 -0.0398582)
(-11.3795 -6.92182 -0.25219)
(-10.8014 -7.38527 -0.403664)
(-10.0399 -7.50347 -0.47661)
(-9.25202 -7.27914 -0.452035)
(-8.62289 -6.78219 -0.339199)
(-8.31013 -6.15985 -0.193016)
(-8.29756 -5.70362 -0.0917249)
(14.0017 -0.00657991 0.00490509)
(14.0186 -0.070682 0.0160059)
(14.0505 -0.219263 0.0286163)
(14.0969 -0.487509 0.0444295)
(14.1457 -0.899824 0.0621359)
(14.19 -1.44987 0.082231)
(14.2334 -2.07527 0.110484)
(14.2459 -2.63884 0.146986)
(14.1215 -2.99253 0.186193)
(13.7321 -3.0874 0.229237)
(12.9692 -2.93534 0.274374)
(11.7732 -2.59002 0.324324)
(10.1845 -2.12504 0.413889)
(8.00677 -1.53055 0.617442)
(4.64119 -0.655656 0.95681)
(-0.0133926 0.437841 1.34715)
(-5.36518 0.744227 1.5184)
(-9.77734 -0.194922 1.30285)
(-12.5611 -1.7002 0.901226)
(-14.1914 -3.18955 0.501249)
(-15.1068 -4.46383 0.164819)
(-15.5321 -5.51015 -0.108383)
(-15.5873 -6.32469 -0.323106)
(-15.3429 -6.8941 -0.477893)
(-14.8677 -7.18064 -0.561054)
(-14.2666 -7.16141 -0.555465)
(-13.6894 -6.861 -0.458372)
(-13.302 -6.35634 -0.301574)
(-13.2403 -5.78484 -0.154373)
(-13.458 -5.41933 -0.0727057)
(14.0016 -0.0171557 0.00392625)
(14.0003 -0.104202 0.0136701)
(13.9941 -0.279613 0.0247621)
(13.9773 -0.578544 0.0400766)
(13.9371 -1.02802 0.0580436)
(13.8846 -1.62213 0.0815539)
(13.8615 -2.30039 0.128662)
(13.8236 -2.8758 0.200213)
(13.5351 -3.11554 0.26858)
(12.772 -3.0129 0.332014)
(11.4472 -2.64738 0.396571)
(9.63846 -2.02628 0.488319)
(7.27169 -1.19315 0.705518)
(3.68182 0.0197912 1.10575)
(-1.43354 1.55298 1.59359)
(-7.38634 2.0145 1.76997)
(-12.1492 0.947759 1.46438)
(-15.1054 -0.735409 0.890729)
(-16.9196 -2.2883 0.396548)
(-18.0771 -3.57224 0.0326344)
(-18.8153 -4.58835 -0.240545)
(-19.224 -5.38574 -0.446357)
(-19.3921 -5.98874 -0.600845)
(-19.3282 -6.38882 -0.69616)
(-19.0792 -6.55601 -0.71705)
(-18.7313 -6.4865 -0.653443)
(-18.4248 -6.21318 -0.51525)
(-18.2907 -5.78787 -0.346953)
(-18.4624 -5.3135 -0.216388)
(-18.8592 -5.03513 -0.150748)
(14.0043 -0.0184975 0.00338641)
(13.9828 -0.110286 0.0118369)
(13.9254 -0.290051 0.0193992)
(13.817 -0.597733 0.0318188)
(13.6371 -1.07099 0.0473658)
(13.4161 -1.70743 0.0737727)
(13.2612 -2.47259 0.163182)
(13.0252 -3.10273 0.320845)
(12.1639 -3.14868 0.441128)
(10.503 -2.73105 0.527962)
(8.21736 -2.0635 0.650545)
(5.44848 -1.08069 0.873666)
(1.70963 0.483543 1.31813)
(-3.5478 2.34895 1.82571)
(-9.51169 2.85872 1.96631)
(-14.2005 1.76228 1.47903)
(-17.1192 0.0725351 0.78853)
(-18.9674 -1.41661 0.19829)
(-20.3037 -2.56319 -0.203153)
(-21.2872 -3.44167 -0.470717)
(-22.0109 -4.11644 -0.664309)
(-22.5847 -4.65571 -0.805877)
(-22.9879 -5.06225 -0.904718)
(-23.2122 -5.32896 -0.953717)
(-23.2895 -5.43504 -0.935138)
(-23.2849 -5.39182 -0.843921)
(-23.3001 -5.21614 -0.699939)
(-23.4159 -4.9186 -0.546615)
(-23.7917 -4.56514 -0.438841)
(-24.3249 -4.37383 -0.381272)
(14.0065 -0.00875935 0.00377574)
(13.9631 -0.0837108 0.0087326)
(13.8432 -0.23374 0.00645296)
(13.6151 -0.511808 0.0107737)
(13.2234 -0.970432 0.0235893)
(12.6722 -1.60666 0.0523553)
(12.1863 -2.48986 0.236281)
(10.9204 -3.29243 0.612457)
(7.9107 -2.99065 0.840749)
(4.64809 -2.12361 0.930653)
(1.32014 -1.11295 1.17391)
(-2.39727 0.774053 1.62367)
(-7.05996 2.47405 2.01789)
(-12.0511 2.82907 1.94212)
(-15.9215 1.88745 1.3183)
(-18.3559 0.547355 0.49928)
(-20.0383 -0.602763 -0.131984)
(-21.349 -1.48026 -0.523559)
(-22.4892 -2.10327 -0.761859)
(-23.4816 -2.56786 -0.928708)
(-24.4182 -2.92768 -1.08096)
(-25.257 -3.21624 -1.19257)
(-25.9646 -3.43191 -1.25482)
(-26.5555 -3.58925 -1.27448)
(-27.047 -3.6744 -1.2378)
(-27.4772 -3.68799 -1.14932)
(-27.8545 -3.62536 -1.04049)
(-28.2212 -3.4635 -0.928581)
(-28.7864 -3.24682 -0.844561)
(-29.3923 -3.14242 -0.77853)
(14.0035 0.000479055 0.00623759)
(13.9768 -0.0299088 0.00490149)
(13.8527 -0.102531 -0.0150218)
(13.561 -0.250764 -0.0438258)
(12.9392 -0.535095 -0.0692368)
(11.7016 -0.971531 -0.112907)
(10.4148 -1.67132 0.182272)
(6.18339 -2.23983 0.972084)
(-3.31597 -1.15777 1.57408)
(-7.82919 0.189125 1.61052)
(-11.3003 0.951616 1.6122)
(-14.102 1.33484 1.54339)
(-16.491 1.30651 1.20214)
(-17.9639 0.962302 0.569952)
(-19.0314 0.431428 -0.0814429)
(-19.9642 0.0131026 -0.586585)
(-20.9394 -0.348542 -0.912663)
(-21.9196 -0.655795 -1.05168)
(-23.0208 -0.885632 -1.14634)
(-24.1582 -1.06731 -1.26168)
(-25.3818 -1.22419 -1.39904)
(-26.5731 -1.34927 -1.52543)
(-27.5488 -1.4381 -1.58107)
(-28.4566 -1.51262 -1.59521)
(-29.3258 -1.56401 -1.56108)
(-30.152 -1.58754 -1.49455)
(-30.8727 -1.58197 -1.43565)
(-31.5087 -1.53612 -1.36499)
(-32.313 -1.46818 -1.30296)
(-33.046 -1.43746 -1.22886)
(13.8903 0.0718828 0.24537)
(13.2467 0.265722 0.901707)
(11.6441 0.29661 1.69974)
(7.24073 0.384355 3.92296)
(1.87468 -0.146834 -2.36264)
(5.9035 -0.274219 -0.770272)
(9.22724 -0.309183 0.425186)
(11.7577 -0.288832 0.85004)
(13.7071 -0.258021 0.929465)
(15.306 -0.2314 0.879361)
(16.6896 -0.206819 0.793574)
(17.8576 -0.176666 0.742935)
(18.6535 -0.130974 0.795501)
(18.5893 -0.114524 0.979947)
(18.0117 -0.181844 1.04516)
(17.7906 -0.200352 0.977379)
(17.6274 -0.228815 0.92838)
(17.5514 -0.263655 0.898573)
(17.5798 -0.305059 0.881676)
(17.7266 -0.351554 0.871273)
(18.0042 -0.399116 0.861601)
(18.4031 -0.442956 0.845702)
(18.9503 -0.476666 0.821167)
(19.4864 -0.502217 0.775841)
(20.5002 -0.50707 0.738952)
(13.9004 0.193479 0.217974)
(13.382 0.684319 0.769319)
(12.1234 1.30532 1.45708)
(8.8307 2.99426 3.26943)
(4.46471 -1.8573 -1.48235)
(7.6363 -2.10356 -0.535657)
(9.68807 -2.28685 0.2834)
(11.3004 -2.24921 0.633511)
(12.7163 -2.09866 0.744006)
(14.0057 -1.93391 0.74706)
(15.1894 -1.75701 0.706895)
(16.2276 -1.52144 0.679471)
(16.9986 -1.16711 0.721774)
(17.1193 -0.754644 0.86319)
(16.7726 -0.66393 0.928776)
(16.7587 -0.648326 0.893539)
(16.7156 -0.691827 0.86815)
(16.6993 -0.769858 0.853235)
(16.7466 -0.875327 0.84563)
(16.8834 -1.00132 0.840708)
(17.1305 -1.13593 0.83388)
(17.4878 -1.26361 0.818943)
(17.9804 -1.36692 0.792266)
(18.482 -1.4399 0.744778)
(19.4007 -1.4678 0.689301)
(13.9262 0.260963 0.179285)
(13.5686 0.855871 0.587939)
(12.8598 1.69242 1.06664)
(11.7799 3.84265 2.42802)
(9.144 6.7538 4.06807)
(5.25726 -3.45176 -1.28375)
(9.27363 -3.13056 -0.582377)
(10.1328 -3.02249 -0.0276468)
(10.6937 -3.29444 0.320926)
(11.2085 -3.42057 0.490772)
(11.8239 -3.37051 0.570182)
(12.5364 -3.23441 0.596926)
(13.3013 -3.02508 0.592285)
(14.0595 -2.69462 0.588403)
(14.7318 -2.17872 0.625467)
(15.0357 -1.53524 0.724789)
(15.0485 -1.2855 0.806262)
(15.2337 -1.19819 0.809862)
(15.3222 -1.21152 0.81571)
(15.3821 -1.29825 0.822701)
(15.4676 -1.44554 0.829102)
(15.6192 -1.63717 0.831676)
(15.8672 -1.8498 0.82672)
(16.2187 -2.05439 0.807824)
(16.7037 -2.22262 0.770237)
(17.2005 -2.33962 0.705686)
(18.1333 -2.37772 0.628318)
(13.9595 0.275838 0.140977)
(13.7516 0.852983 0.437175)
(13.5584 1.66445 0.858747)
(13.3382 2.94142 1.35621)
(14.0938 4.8961 2.11807)
(17.4136 6.04418 2.43809)
(14.752 -4.63679 -0.649883)
(12.436 -3.70231 -0.455915)
(12.0152 -3.13308 -0.0925219)
(11.8924 -3.21083 0.13864)
(11.7159 -3.59664 0.26096)
(11.5557 -3.89757 0.3336)
(11.5288 -4.01974 0.391146)
(11.6453 -4.00717 0.434702)
(11.8753 -3.87025 0.461884)
(12.1934 -3.57204 0.484802)
(12.5915 -3.0719 0.525769)
(12.9998 -2.39284 0.599626)
(13.2833 -1.98573 0.712236)
(13.5287 -1.80009 0.752553)
(13.6569 -1.75674 0.788282)
(13.7359 -1.83596 0.815186)
(13.8258 -2.01729 0.832548)
(13.9741 -2.271 0.839925)
(14.2168 -2.55843 0.833903)
(14.5649 -2.83606 0.803321)
(15.0538 -3.06524 0.741184)
(15.5626 -3.2241 0.643235)
(16.538 -3.27064 0.5307)
(13.9831 0.256872 0.106722)
(13.9021 0.742429 0.314961)
(13.8737 1.30459 0.559186)
(13.96 1.99556 0.737673)
(14.7095 2.44444 1.00151)
(16.0358 2.10344 0.975951)
(16.7394 -0.317228 0.472422)
(15.0924 -2.25334 0.0304711)
(14.0033 -2.72511 -0.0180216)
(13.5346 -2.86999 0.0582171)
(13.2807 -3.12998 0.121939)
(12.9805 -3.52507 0.155424)
(12.62 -3.88687 0.18702)
(12.2748 -4.1205 0.231787)
(11.9772 -4.21763 0.286567)
(11.7331 -4.17553 0.343569)
(11.559 -3.97646 0.404172)
(11.4964 -3.62509 0.473532)
(11.592 -3.12077 0.529939)
(11.7597 -2.59413 0.684927)
(11.8469 -2.34057 0.750021)
(11.8666 -2.26159 0.801128)
(11.8658 -2.34983 0.835182)
(11.8948 -2.57558 0.860857)
(11.9988 -2.89325 0.876846)
(12.211 -3.25478 0.862539)
(12.5445 -3.60517 0.794788)
(13.0393 -3.8936 0.680066)
(13.5731 -4.09328 0.527163)
(14.6122 -4.13325 0.365801)
(13.9975 0.218344 0.0788724)
(13.9962 0.597162 0.226885)
(14.058 0.948549 0.378873)
(14.3079 1.17469 0.520475)
(14.7765 1.03679 0.5756)
(15.2659 0.67452 0.493536)
(15.4445 -0.57304 0.31343)
(14.8569 -1.75511 0.169957)
(14.4704 -2.32667 0.128918)
(14.2297 -2.71073 0.138179)
(14.0546 -3.04532 0.156509)
(13.8275 -3.38018 0.172286)
(13.5044 -3.67616 0.19664)
(13.0992 -3.88687 0.239)
(12.6345 -3.99249 0.300129)
(12.1351 -3.98448 0.377211)
(11.632 -3.85946 0.470319)
(11.1565 -3.63517 0.569174)
(10.7273 -3.31943 0.656794)
(10.4316 -2.94304 0.741589)
(10.1842 -2.70692 0.810301)
(9.96117 -2.65497 0.859396)
(9.78538 -2.78524 0.90852)
(9.68646 -3.06633 0.957304)
(9.69653 -3.46047 0.963846)
(9.85236 -3.91313 0.891263)
(10.1665 -4.34997 0.732367)
(10.6822 -4.70099 0.531999)
(11.2649 -4.93558 0.312688)
(12.3734 -4.9412 0.104027)
(14.0053 0.171778 0.0574661)
(14.0449 0.450029 0.163945)
(14.1432 0.660628 0.265764)
(14.3552 0.731662 0.352405)
(14.6724 0.513581 0.384974)
(14.9507 -0.0979582 0.335927)
(14.9996 -0.91124 0.264415)
(14.8427 -1.68223 0.202305)
(14.641 -2.2631 0.178291)
(14.4773 -2.69017 0.181362)
(14.3206 -3.03145 0.194796)
(14.0985 -3.32043 0.213513)
(13.7609 -3.54888 0.244461)
(13.2955 -3.70104 0.295309)
(12.7134 -3.77138 0.367937)
(12.0392 -3.75804 0.460604)
(11.302 -3.65896 0.57162)
(10.5272 -3.4862 0.686413)
(9.74068 -3.25971 0.783006)
(9.01716 -3.00166 0.865389)
(8.37641 -2.84973 0.937465)
(7.83261 -2.86046 1.01499)
(7.39767 -3.06232 1.097)
(7.10441 -3.44983 1.12347)
(6.99715 -3.97311 1.03199)
(7.11902 -4.5564 0.816014)
(7.47198 -5.09246 0.52789)
(8.05947 -5.49258 0.240646)
(8.72576 -5.73183 -0.0297276)
(9.86638 -5.64165 -0.242254)
(14.0084 0.125304 0.0416703)
(14.064 0.31421 0.119564)
(14.1692 0.424887 0.192454)
(14.3484 0.400957 0.253153)
(14.5824 0.149638 0.282768)
(14.7812 -0.377161 0.271034)
(14.8534 -1.05396 0.244282)
(14.8058 -1.72981 0.22172)
(14.7036 -2.28769 0.21694)
(14.5859 -2.71351 0.227191)
(14.4306 -3.0298 0.246608)
(14.184 -3.25483 0.275473)
(13.7964 -3.39495 0.321075)
(13.243 -3.45895 0.389971)
(12.5264 -3.46205 0.483683)
(11.6678 -3.41436 0.600677)
(10.6873 -3.3165 0.732514)
(9.59385 -3.16938 0.869807)
(8.41804 -2.97733 0.996846)
(7.25438 -2.78318 1.11496)
(6.17408 -2.71181 1.234)
(5.24318 -2.83662 1.33684)
(4.51327 -3.18951 1.35337)
(4.06368 -3.7588 1.21417)
(3.92943 -4.47938 0.923886)
(4.11845 -5.22907 0.542222)
(4.61162 -5.85185 0.149095)
(5.31104 -6.2599 -0.192824)
(6.06127 -6.40978 -0.444853)
(7.10831 -6.12656 -0.567789)
(14.0085 0.0837089 0.0303065)
(14.065 0.196952 0.0885741)
(14.1623 0.232656 0.144202)
(14.3109 0.143093 0.192619)
(14.4916 -0.131465 0.224331)
(14.6486 -0.612104 0.235187)
(14.7316 -1.21814 0.238354)
(14.7378 -1.83653 0.243845)
(14.6886 -2.36754 0.257981)
(14.5909 -2.77046 0.280715)
(14.4178 -3.03952 0.312129)
(14.1195 -3.18 0.357231)
(13.6445 -3.20796 0.423711)
(12.9626 -3.15836 0.515628)
(12.0746 -3.07538 0.631913)
(10.9964 -2.98099 0.777506)
(9.71802 -2.83194 0.967804)
(8.20095 -2.61875 1.19134)
(6.48058 -2.40277 1.42203)
(4.74461 -2.25456 1.61171)
(3.20861 -2.30517 1.70398)
(2.00942 -2.63261 1.6535)
(1.21162 -3.24653 1.42329)
(0.818414 -4.09172 1.03933)
(0.801827 -5.04545 0.568868)
(1.12774 -5.93768 0.0837087)
(1.73535 -6.59371 -0.344202)
(2.48585 -6.89539 -0.641791)
(3.21262 -6.80382 -0.767814)
(3.96352 -6.27244 -0.72838)
(14.0067 0.0492316 0.0221968)
(14.0557 0.101001 0.0668427)
(14.1369 0.0782045 0.111761)
(14.2553 -0.0613774 0.154655)
(14.3942 -0.358831 0.19085)
(14.5188 -0.822473 0.21879)
(14.599 -1.39521 0.246133)
(14.6283 -1.98381 0.276841)
(14.6023 -2.48905 0.311051)
(14.5004 -2.85234 0.350593)
(14.2831 -3.04997 0.401194)
(13.8957 -3.07764 0.469495)
(13.2817 -2.96543 0.556608)
(12.4107 -2.78734 0.66452)
(11.2967 -2.60907 0.814781)
(9.89997 -2.39381 1.06318)
(8.06673 -2.09285 1.41602)
(5.81684 -1.71741 1.80804)
(3.44821 -1.42169 2.10949)
(1.32941 -1.4037 2.18258)
(-0.285155 -1.75437 2.00124)
(-1.35199 -2.45373 1.62401)
(-1.94542 -3.41889 1.12598)
(-2.15674 -4.53333 0.577479)
(-2.06614 -5.64857 0.0271548)
(-1.70885 -6.57831 -0.4576)
(-1.14823 -7.14035 -0.792517)
(-0.545277 -7.19596 -0.919496)
(-0.0449844 -6.75392 -0.856483)
(0.269206 -6.07594 -0.649369)
(14.0042 0.0227175 0.0163346)
(14.0414 0.0271334 0.051205)
(14.1014 -0.0417101 0.0891497)
(14.1868 -0.221739 0.130386)
(14.2836 -0.543769 0.173216)
(14.3696 -1.01037 0.217148)
(14.429 -1.57892 0.26862)
(14.4583 -2.16324 0.327798)
(14.4322 -2.64575 0.38695)
(14.2965 -2.94905 0.451122)
(13.9907 -3.04156 0.531416)
(13.4491 -2.91733 0.623234)
(12.6092 -2.63945 0.717727)
(11.4677 -2.31778 0.858618)
(9.98605 -1.96806 1.14517)
(7.89094 -1.4989 1.59759)
(5.16993 -0.879983 2.20332)
(2.23028 -0.3259 2.69425)
(-0.344349 -0.188153 2.73437)
(-2.22312 -0.590087 2.3531)
(-3.40983 -1.41684 1.78736)
(-4.10672 -2.50463 1.17492)
(-4.48072 -3.72118 0.564922)
(-4.66193 -4.97046 -0.0233755)
(-4.66548 -6.10582 -0.543777)
(-4.49249 -6.94228 -0.917084)
(-4.17178 -7.29727 -1.06258)
(-3.86514 -7.04915 -0.971415)
(-3.72474 -6.32479 -0.748726)
(-3.56604 -5.65127 -0.461939)
(14.0018 0.00427773 0.0119681)
(14.026 -0.0245144 0.0392909)
(14.0605 -0.127942 0.0723964)
(14.1064 -0.339915 0.114764)
(14.1503 -0.687261 0.166656)
(14.1777 -1.17154 0.226478)
(14.1881 -1.76369 0.305564)
(14.1935 -2.37468 0.406832)
(14.1423 -2.83361 0.504958)
(13.9215 -3.03764 0.607661)
(13.4354 -2.97088 0.725522)
(12.6097 -2.64937 0.821869)
(11.414 -2.17729 0.933602)
(9.83201 -1.63643 1.21668)
(7.5342 -0.950544 1.74553)
(4.41 -0.0115656 2.57793)
(1.0002 0.873424 3.29648)
(-1.85326 1.1735 3.29636)
(-3.70586 0.761744 2.6916)
(-4.82181 -0.187542 1.9128)
(-5.43553 -1.39626 1.18486)
(-5.87297 -2.67758 0.531728)
(-6.3073 -3.95809 -0.0677668)
(-6.72138 -5.17117 -0.598781)
(-7.07414 -6.19014 -1.0118)
(-7.30116 -6.84235 -1.21366)
(-7.37614 -6.96273 -1.15777)
(-7.45725 -6.49311 -0.912046)
(-7.67983 -5.67394 -0.63919)
(-7.84637 -5.07821 -0.356984)
(14.0008 -0.00638386 0.00868047)
(14.0121 -0.0538491 0.0293892)
(14.0162 -0.178761 0.0586684)
(14.0104 -0.410683 0.103877)
(13.9787 -0.779145 0.165489)
(13.9078 -1.28969 0.236188)
(13.8187 -1.93337 0.351757)
(13.7649 -2.61043 0.541684)
(13.6353 -3.02581 0.714392)
(13.1998 -3.04471 0.865765)
(12.3208 -2.74248 1.00241)
(10.9851 -2.17652 1.09363)
(9.21754 -1.44418 1.32793)
(6.72044 -0.509297 1.89572)
(3.28349 0.755861 2.94698)
(-0.418935 1.98394 3.86322)
(-3.20456 2.44398 3.8069)
(-4.81825 2.03902 2.99868)
(-5.49359 1.1007 2.02407)
(-5.77223 -0.168008 1.1648)
(-6.02207 -1.50887 0.480784)
(-6.59947 -2.75619 -0.102073)
(-7.41226 -3.90078 -0.6258)
(-8.33568 -4.94068 -1.07677)
(-9.26726 -5.75777 -1.3779)
(-10.0475 -6.21511 -1.43483)
(-10.6056 -6.19697 -1.2541)
(-11.0838 -5.67067 -0.964322)
(-11.6725 -4.89628 -0.707311)
(-12.1488 -4.40799 -0.473475)
(14.0011 -0.00958452 0.00646745)
(14.0014 -0.0606447 0.0204386)
(13.9693 -0.189844 0.0455236)
(13.8959 -0.421755 0.0923218)
(13.7512 -0.797138 0.158975)
(13.5035 -1.33027 0.225658)
(13.2052 -2.05169 0.413167)
(12.9751 -2.85222 0.837009)
(12.5134 -3.16718 1.13742)
(11.4953 -2.8399 1.2639)
(9.83143 -2.20589 1.40215)
(7.67572 -1.35993 1.55859)
(4.89155 -0.230777 2.15772)
(1.3074 1.34291 3.36844)
(-2.24756 2.76601 4.3641)
(-4.72828 3.28847 4.19863)
(-5.72178 2.92069 3.2325)
(-5.73666 2.00068 2.08982)
(-5.18105 0.890972 1.12382)
(-4.73987 -0.358101 0.408739)
(-5.076 -1.55622 -0.0921732)
(-6.20288 -2.52258 -0.565792)
(-7.72213 -3.3713 -1.05147)
(-9.41187 -4.15358 -1.46589)
(-11.121 -4.74772 -1.70822)
(-12.5797 -5.07204 -1.70199)
(-13.7308 -5.04818 -1.5089)
(-14.6947 -4.60214 -1.27364)
(-15.6687 -3.96111 -1.072)
(-16.4591 -3.57844 -0.869324)
(14.0001 -0.00368975 0.00601707)
(13.9985 -0.0421587 0.0102307)
(13.9369 -0.152694 0.0280461)
(13.7882 -0.349895 0.0642656)
(13.4794 -0.694629 0.113814)
(12.8711 -1.2035 0.145639)
(12.0458 -1.9932 0.537896)
(11.0035 -3.00619 1.56554)
(8.89218 -3.1476 2.05273)
(6.70655 -2.35271 1.81418)
(4.10525 -1.35387 1.83106)
(1.03523 -0.00161787 2.62521)
(-2.26518 1.61854 3.94306)
(-5.03247 2.85848 4.69888)
(-6.57097 3.30941 4.32731)
(-6.76302 2.97112 3.19472)
(-5.77439 2.16934 1.96179)
(-4.18302 1.2339 0.898368)
(-2.51778 0.385152 0.0850666)
(-1.53004 -0.517555 -0.325722)
(-2.41087 -1.33454 -0.411165)
(-4.75088 -1.86578 -0.802943)
(-7.23265 -2.30735 -1.33105)
(-9.84436 -2.78083 -1.78689)
(-12.476 -3.17614 -2.05808)
(-14.7774 -3.42511 -2.07894)
(-16.7339 -3.45137 -1.97613)
(-18.3877 -3.15667 -1.85255)
(-19.8993 -2.72226 -1.71742)
(-21.1053 -2.45669 -1.53464)
(13.9947 0.00237424 0.00825513)
(14.0576 -0.00918292 -0.016844)
(14.0259 -0.0695295 -0.0204424)
(13.8447 -0.175952 -0.0317127)
(13.3535 -0.398859 -0.04806)
(12.0511 -0.74816 -0.157209)
(10.0393 -1.38284 0.550048)
(6.53872 -2.17454 2.66505)
(-1.04818 -1.60046 3.5615)
(-4.58137 -0.278941 2.94638)
(-7.52349 0.761188 3.2454)
(-9.48663 1.55002 3.99344)
(-10.2775 2.15344 4.37055)
(-9.68419 2.4969 3.96973)
(-7.77149 2.53705 2.96524)
(-5.03643 2.28546 1.68656)
(-1.67716 1.80022 0.363855)
(0.56532 1.19953 -0.678164)
(1.73539 0.794777 -1.17729)
(3.18281 0.244855 -1.21205)
(1.86974 -0.442853 -0.705707)
(-2.94002 -0.756093 -0.92985)
(-6.39954 -0.89163 -1.54385)
(-9.72197 -1.09131 -2.08106)
(-13.1145 -1.28827 -2.43439)
(-16.2867 -1.43109 -2.5462)
(-19.1686 -1.46962 -2.56581)
(-21.7021 -1.36483 -2.57485)
(-23.9855 -1.20036 -2.54662)
(-25.7585 -1.09293 -2.40569)
(13.915 0.0569116 0.328496)
(13.5044 0.193642 1.11182)
(12.6324 0.209349 2.19382)
(10.8231 0.240597 4.75604)
(1.71308 -0.016259 -1.57292)
(6.92327 -0.236604 -2.84798)
(8.36869 -0.221517 -0.933716)
(10.3927 -0.237158 0.633158)
(12.4051 -0.230995 1.36185)
(14.0824 -0.213039 1.56623)
(15.4637 -0.194616 1.53957)
(16.6279 -0.175995 1.43169)
(17.5873 -0.15188 1.35546)
(18.2499 -0.114323 1.40905)
(18.2755 -0.106016 1.56657)
(17.9203 -0.168887 1.57459)
(17.7962 -0.181987 1.49424)
(17.7068 -0.203529 1.43317)
(17.6796 -0.231006 1.39276)
(17.734 -0.26494 1.36783)
(17.8868 -0.304398 1.35163)
(18.1527 -0.346213 1.33662)
(18.5262 -0.386546 1.31404)
(19.0358 -0.419754 1.27824)
(19.5337 -0.447457 1.21991)
(20.489 -0.459361 1.1583)
(13.9284 0.155927 0.296909)
(13.5812 0.513846 0.979197)
(12.8836 0.938359 1.92045)
(11.8839 2.13532 4.27394)
(10.6111 4.57075 9.98569)
(4.27089 -1.42439 -2.23177)
(8.62018 -1.86574 -1.91115)
(9.68103 -1.6669 -0.617752)
(10.8883 -1.76052 0.448646)
(12.1424 -1.78704 1.02082)
(13.3305 -1.71718 1.2474)
(14.4218 -1.61341 1.29508)
(15.4073 -1.4859 1.26114)
(16.2559 -1.30187 1.22952)
(16.8937 -1.01513 1.27896)
(17.0678 -0.679568 1.3977)
(16.8913 -0.601667 1.41624)
(16.9185 -0.581559 1.37264)
(16.9153 -0.610402 1.33935)
(16.9288 -0.669593 1.31746)
(16.9914 -0.754424 1.30438)
(17.1283 -0.860032 1.29547)
(17.3602 -0.977087 1.28457)
(17.6894 -1.09323 1.26341)
(18.1419 -1.19384 1.22605)
(18.6015 -1.27264 1.1643)
(19.4588 -1.31804 1.09402)
(13.9528 0.214891 0.248486)
(13.7106 0.675228 0.78741)
(13.2959 1.27551 1.47381)
(13.0613 2.51722 2.90143)
(13.7818 4.5401 5.2474)
(11.1684 -3.25164 -1.72597)
(11.1725 -2.52928 -0.716147)
(11.4399 -2.38104 0.0160378)
(11.8121 -2.56551 0.533388)
(12.2349 -2.72421 0.82588)
(12.7432 -2.75007 0.978957)
(13.3236 -2.68599 1.04644)
(13.9347 -2.54525 1.06079)
(14.5302 -2.29358 1.06666)
(15.0653 -1.8835 1.1174)
(15.3728 -1.35839 1.1998)
(15.4703 -1.13629 1.24465)
(15.6373 -1.05357 1.24716)
(15.728 -1.05266 1.2523)
(15.7953 -1.11445 1.25841)
(15.8831 -1.23065 1.2645)
(16.0268 -1.38952 1.26731)
(16.2546 -1.57307 1.2608)
(16.5746 -1.75901 1.23541)
(17.0164 -1.92432 1.18475)
(17.4681 -2.0536 1.10187)
(18.3338 -2.12003 1.0035)
(13.9753 0.23389 0.198595)
(13.8475 0.696877 0.602929)
(13.7574 1.29844 1.12056)
(13.7565 2.13248 1.80128)
(14.7796 2.84641 2.518)
(17.1713 2.80166 2.79591)
(18.3727 -0.632101 0.697236)
(15.3449 -2.9301 -0.681135)
(13.4125 -2.81652 -0.49122)
(12.8809 -2.56042 -0.0693077)
(12.747 -2.5924 0.270557)
(12.6638 -2.86676 0.484816)
(12.5827 -3.14285 0.617516)
(12.5764 -3.29608 0.717638)
(12.6672 -3.33015 0.794769)
(12.8368 -3.24924 0.84742)
(13.0671 -3.0267 0.890353)
(13.3643 -2.63457 0.95311)
(13.7297 -2.0762 1.0197)
(14.0232 -1.71283 1.10505)
(14.2195 -1.5489 1.1494)
(14.3298 -1.49735 1.18996)
(14.4039 -1.54767 1.22307)
(14.4893 -1.68723 1.2486)
(14.6265 -1.89467 1.26274)
(14.8479 -2.1419 1.25624)
(15.1646 -2.39673 1.21547)
(15.6091 -2.62835 1.13492)
(16.0722 -2.81225 1.01114)