/*--------------------------------*- C++ -*----------------------------------*\
  =========                 |
  \\      /  F ield         | OpenFOAM: The Open Source CFD Toolbox
   \\    /   O peration     | Website:  https://openfoam.org
    \\  /    A nd           | Version:  10
     \\/     M anipulation  |
\*---------------------------------------------------------------------------*/
FoamFile
{
    format      ascii;
    class       volScalarField;
    location    "500";
    object      k;
}
// * * * * * * * * * * * * * * * * * * * * * * * * * * * * * * * * * * * * * //

dimensions      [0 2 -2 0 0 0 0];

internalField   nonuniform List<scalar> 
27507
(
348.951
348.721
350.108
309.541
25.202
46.8074
63.5863
76.5889
85.9032
91.9187
95.3012
96.7192
96.727
95.6368
93.5883
91.1445
88.4927
85.7243
82.9057
80.0834
77.2904
74.5523
71.8953
69.3866
67.3476
348.691
347.418
348.322
324.498
31.3223
58.2469
75.4621
86.4068
93.2641
97.2356
99.1067
99.4524
98.6984
97.2727
95.0293
92.2158
89.2889
86.3124
83.3335
80.3867
77.4964
74.6819
71.9647
69.4082
67.3336
348.215
345.457
344.766
335.264
5.04917
64.9028
90.1517
101.463
106.439
108.26
108.311
107.25
105.445
103.119
100.582
97.4986
94.0719
90.6747
87.3341
84.0714
80.9023
77.8371
74.8846
72.0581
69.4143
67.2738
347.642
343.226
338.262
332.032
298.56
29.1269
24.8356
114.905
128.235
131.451
130.81
128.249
124.757
120.852
116.792
112.697
108.625
104.649
100.383
96.2571
92.306
88.5269
84.9166
81.4717
78.1872
75.0599
72.094
69.3376
67.1093
347.069
341.117
334.323
324.287
311.066
278.474
230.798
208.697
191.089
177.34
166.088
156.387
147.708
139.8
132.541
125.855
119.677
113.949
108.611
103.098
98.3082
93.8157
89.5989
85.6356
81.9062
78.3932
75.0826
71.9687
69.0907
66.7625
346.557
339.349
331.199
320.671
305.776
289.513
264.122
237.986
217.952
200.416
185.194
171.907
160.194
149.77
140.424
131.998
124.364
117.423
111.102
105.23
99.8498
94.8838
90.2813
86.0042
82.0195
78.2989
74.8199
71.5694
68.5763
66.1451
346.125
337.882
328.631
317.502
303.481
286.057
266.523
246.201
227.042
209.478
193.62
179.395
166.651
155.213
144.923
135.641
127.246
119.633
112.713
106.375
100.576
95.2548
90.3549
85.8306
81.6424
77.7557
74.1421
70.7823
67.6942
65.1641
345.765
336.621
326.384
314.547
300.614
284.45
266.683
248.23
230.163
213.079
197.261
182.789
169.637
157.722
146.938
137.177
128.333
120.31
113.019
106.37
100.296
94.7381
89.6382
84.9475
80.623
76.6263
72.9253
69.4957
66.3439
63.7239
345.46
335.447
324.174
311.428
297.07
281.167
264.154
246.646
229.353
212.78
197.226
182.828
169.614
157.551
146.578
136.61
127.559
119.337
111.863
105.055
98.8448
93.1696
87.9728
83.2042
78.8193
74.7781
71.0462
67.5961
64.4219
61.7248
345.192
334.216
321.668
307.671
292.418
276.15
259.237
242.132
225.315
209.169
193.947
179.786
166.723
154.746
143.814
133.86
124.806
116.575
109.089
102.272
96.0586
90.3861
85.1983
80.4456
76.0831
72.0703
68.3722
64.959
61.8147
59.0564
344.946
332.719
318.381
302.58
285.912
268.791
251.554
234.518
217.991
202.225
187.396
173.603
160.864
149.17
138.484
128.744
119.88
111.818
104.486
97.8118
91.732
86.1865
81.1202
76.4845
72.2354
68.3326
64.742
61.4315
58.3838
55.5851
344.703
330.559
313.415
294.929
276.231
257.857
240.051
222.952
206.689
191.368
177.066
163.815
151.606
140.415
130.196
120.886
112.417
104.718
97.7195
91.3541
85.5601
80.2804
75.4623
71.0586
67.0274
63.3292
59.9328
56.8009
53.9378
51.1287
344.435
326.761
304.764
282.236
260.847
241.006
222.662
205.654
189.884
175.275
161.791
149.388
138.019
127.634
118.172
109.567
101.75
94.6531
88.209
82.3551
77.0332
72.1896
67.7749
63.745
60.0612
56.6846
53.5921
50.7286
48.1715
45.4029
343.978
318.202
287.12
258.793
234.437
213.538
195.291
179.077
164.489
151.242
139.182
128.194
118.189
109.093
100.832
93.3401
86.549
80.3954
74.8184
69.7611
65.171
61.0003
57.2046
53.7447
50.5876
47.6933
45.0605
42.5799
40.5032
37.8778
341.91
291.591
243.99
209.624
184.199
164.606
148.655
135.164
123.421
112.987
103.624
95.178
87.5458
80.637
74.3825
68.7268
63.6156
58.9975
54.8235
51.0484
47.6296
44.5306
41.7152
39.1533
36.8233
34.675
32.7694
30.854
29.5182
27.2857
317.06
174.865
118.163
91.1686
75.6737
65.5792
58.2051
52.3738
47.5081
43.2988
39.5828
36.2662
33.2896
30.6174
28.2131
26.0444
24.0869
22.3195
20.7233
19.2802
17.9756
16.7908
15.7224
14.7365
13.8689
13.0177
12.3504
11.5394
11.1426
10.1564
348.69
347.416
348.306
323.92
30.5722
57.9076
75.3126
86.3385
93.2308
97.2182
99.097
99.4466
98.6948
97.2699
95.0271
92.2141
89.2876
86.3114
83.3327
80.386
77.4959
74.6814
71.9644
69.4079
67.3334
348.448
346.36
346.707
331.039
41.8633
70.6366
86.2871
94.9186
99.6378
101.908
102.511
101.938
100.519
98.7777
96.3476
93.2041
90.0272
86.8587
83.7308
80.6676
77.6859
74.7993
72.0251
69.4231
67.3146
348.009
344.658
343.497
333.227
128.06
17.9163
82.5276
101.961
109.872
112.668
112.938
111.83
109.9
107.44
104.622
101.844
98.6091
94.9137
91.3085
87.805
84.4139
81.1432
77.9973
74.9805
72.1026
69.4175
67.2457
347.482
342.632
337.143
331.329
305.462
95.4404
67.8265
134.693
139.605
138.999
136.214
132.306
127.879
123.28
118.684
114.17
109.769
105.633
101.252
96.925
92.8131
88.9048
85.1905
81.6618
78.3097
75.1278
72.1178
69.3254
67.0692
346.953
340.724
333.718
327.395
311.553
283.136
241.596
217.572
197.859
182.647
170.271
159.714
150.38
141.961
134.293
127.272
120.817
114.861
109.333
103.739
98.8067
94.196
89.8815
85.8376
82.0421
78.475
75.1199
71.9697
69.0615
66.7092
346.476
339.082
330.755
320.079
305.581
290.13
265.935
240.491
220.563
202.903
187.45
173.896
161.915
151.241
141.669
133.04
125.227
118.129
111.669
105.68
100.2
95.1499
90.4761
86.139
82.1039
78.3412
74.8273
71.5477
68.5302
66.0787
346.069
337.701
328.33
317.131
303.235
286.165
267.083
247.171
228.223
210.724
194.835
180.527
167.672
156.115
145.706
136.309
127.807
120.097
113.089
106.674
100.807
95.4259
90.4749
85.9067
81.6811
77.7628
74.1225
70.7402
67.6329
65.086
345.726
336.496
326.176
314.292
300.401
284.39
266.838
248.605
230.696
213.698
197.907
183.422
170.23
158.26
147.414
137.588
128.682
120.598
113.251
106.551
100.432
94.8328
89.6971
84.9753
80.6237
76.6039
72.8831
69.4367
66.2702
63.6365
345.433
335.359
324.026
311.239
296.888
281.05
264.142
246.757
229.565
213.062
197.544
183.157
169.934
157.849
146.845
136.842
127.755
119.498
111.989
105.149
98.9082
93.2058
87.9846
83.1945
78.7907
74.7329
70.9869
67.5245
64.3395
61.6313
345.174
334.153
321.558
307.523
292.258
276.013
259.15
242.111
225.357
209.261
194.071
179.927
166.869
154.886
143.941
133.97
124.898
116.646
109.139
102.303
96.07
90.3799
85.1761
80.4089
76.0336
72.0094
68.3015
64.8797
61.7277
58.9607
344.933
332.673
318.296
302.459
285.769
268.647
251.43
234.428
217.938
202.207
187.403
173.628
160.899
149.208
138.519
128.773
119.901
111.828
104.485
97.7996
91.7085
86.1523
81.076
76.431
72.1735
68.2633
64.6661
61.3497
58.297
55.4914
344.695
330.526
313.348
294.828
276.101
257.712
239.909
222.824
206.583
191.285
177.003
163.769
151.572
140.389
130.174
120.865
112.394
104.691
97.6876
91.3167
85.5169
80.2313
75.4073
70.9981
66.9617
63.2589
59.8582
56.7224
53.8562
51.0419
344.43
326.737
304.711
282.148
260.728
240.864
222.512
205.508
189.75
175.158
161.691
149.303
137.948
127.574
118.119
109.519
101.705
94.6083
88.1636
82.3081
76.9838
72.1375
67.7199
63.6869
60.0001
56.6206
53.5254
50.6594
48.1003
45.3283
343.975
318.186
287.078
258.717
234.326
213.402
195.141
178.926
164.346
151.112
139.068
128.095
118.105
109.021
100.771
93.2858
86.5001
80.3499
74.775
69.7184
65.1281
60.9566
57.1596
53.6982
50.5393
47.6432
45.0086
42.5264
40.4478
37.8212
341.909
291.581
243.955
209.558
184.101
164.485
148.52
135.028
123.291
112.87
103.522
95.0905
87.4722
80.5764
74.3328
68.6856
63.5808
58.9673
54.7963
51.0228
47.6048
44.5057
41.6898
39.127
36.7958
34.6463
32.7391
30.823
29.4837
27.2541
317.06
174.86
118.143
91.1338
75.6247
65.5203
58.1409
52.3094
47.4475
43.2446
39.5363
36.2276
33.2584
30.5921
28.1929
26.0284
24.0742
22.3093
20.7149
19.2729
17.969
16.7845
15.7161
14.7299
13.8622
13.0102
12.3426
11.5313
11.1323
10.1507
348.214
345.454
344.749
335.142
4.64584
64.074
89.7636
101.253
106.322
108.193
108.271
107.225
105.429
103.108
100.575
97.4928
94.0676
90.6713
87.3314
84.0692
80.9005
77.8357
74.8834
72.0571
69.4134
67.273
348.008
344.656
343.495
333.346
96.5985
20.1584
82.5149
101.817
109.765
112.603
112.899
111.806
109.885
107.43
104.616
101.839
98.6056
94.911
91.3064
87.8033
84.4126
81.142
77.9964
74.9797
72.1019
69.4169
67.2452
347.644
343.271
340.982
332.721
292.335
104.222
122.145
127.272
127.743
125.929
122.988
119.503
115.766
111.921
108.041
104.43
100.514
96.3684
92.4049
88.6161
84.9976
81.5453
78.2543
75.1213
72.1502
69.3897
67.1595
347.197
341.599
335.275
329.481
310.442
262.031
195.037
177.852
170.233
162.124
154.733
147.816
141.172
134.792
128.716
122.964
117.533
112.401
107.657
102.749
98.0789
93.6869
89.5506
85.6511
81.972
78.498
75.2174
72.1273
69.2693
66.961
346.743
340.007
332.421
322.182
311.352
287.628
257.777
230.964
209.56
192.4
178.257
166.224
155.696
146.31
137.848
130.166
123.158
116.74
110.827
104.846
99.664
94.8445
90.3561
86.1682
82.2539
78.5889
75.1534
71.937
68.9738
66.5765
346.328
338.594
329.924
319.181
304.958
286.575
265.584
244.371
224.667
206.929
191.183
177.238
164.84
153.76
143.81
134.837
126.716
119.345
112.644
106.449
100.794
95.5934
90.7923
86.3472
82.2213
78.3827
74.8056
71.4734
68.4114
65.9218
345.965
337.366
327.771
316.473
302.719
286.216
267.781
248.662
230.112
212.766
196.863
182.437
169.411
157.657
147.046
137.454
128.767
120.886
113.723
107.171
101.183
95.6966
90.654
86.0071
81.7144
77.7392
74.051
70.6283
67.4861
64.9076
345.653
336.262
325.785
313.808
299.967
284.199
266.995
249.155
231.531
214.698
198.97
184.474
171.222
159.162
148.212
138.276
129.26
121.071
113.625
106.835
100.635
94.9636
89.7643
84.9868
80.5872
76.526
72.7699
69.2936
66.1007
63.4413
345.382
335.192
323.74
310.869
296.513
280.776
264.042
246.869
229.859
213.483
198.036
183.674
170.442
158.323
147.269
137.208
128.059
119.739
112.17
105.272
98.9792
93.2291
87.9651
83.137
78.6998
74.6131
70.842
67.3583
64.1542
61.4254
345.139
334.031
321.342
307.227
291.927
275.708
258.926
241.998
225.355
209.349
194.221
180.111
167.065
155.076
144.112
134.114
125.009
116.723
109.181
102.311
96.0455
90.3253
85.094
80.302
75.9045
71.8609
68.1361
64.6997
61.5347
58.7515
344.909
332.583
318.128
302.214
285.47
268.335
251.144
234.195
217.77
202.099
187.344
173.602
160.895
149.212
138.522
128.768
119.883
111.795
104.433
97.7297
91.6205
86.0468
80.9541
76.2939
72.0226
68.1001
64.4921
61.1663
58.1054
55.2874
344.679
330.459
313.214
294.62
275.829
257.403
239.592
222.528
206.321
191.064
176.82
163.617
151.445
140.279
130.073
120.768
112.297
104.59
97.5807
91.2023
85.3941
80.0998
75.2671
70.8496
66.8054
63.0954
59.6883
56.5468
53.6761
50.8526
344.419
326.689
304.604
281.969
260.479
240.564
222.186
205.182
189.442
174.877
161.442
149.084
137.756
127.403
117.965
109.377
101.57
94.4779
88.0349
82.179
76.8529
72.0037
67.5826
63.5458
59.8551
56.4718
53.3731
50.5037
47.9424
45.1641
343.969
318.154
286.992
258.561
234.099
213.119
194.825
178.6
164.029
150.817
138.802
127.859
117.897
108.837
100.607
93.1389
86.3656
80.2245
74.6556
69.6028
65.0144
60.8433
57.0458
53.5832
50.4227
47.5245
44.8881
42.4038
40.323
37.6949
341.907
291.561
243.887
209.427
183.906
164.239
148.244
134.743
123.014
112.612
103.29
94.8877
87.2961
80.4256
74.2036
68.5741
63.4832
58.8801
54.7166
50.9481
47.5332
44.4357
41.6203
39.057
36.7249
34.574
32.665
30.7493
29.4005
27.1843
317.06
174.85
118.107
91.0699
75.5326
65.4073
58.015
52.1807
47.3237
43.1309
39.4359
36.1415
33.1858
30.5309
28.1418
25.9857
24.0383
22.2787
20.6883
19.2491
17.9471
16.7637
15.6959
14.7099
13.8417
12.9907
12.317
11.5267
11.0425
10.1908
347.642
343.221
338.242
332.011
298.878
22.1685
114.82
128.061
131.261
130.662
128.146
124.687
120.805
116.759
112.674
108.609
104.637
100.374
96.2499
92.3003
88.5223
84.9128
81.4686
78.1847
75.0578
72.0922
69.336
67.1078
347.482
342.629
337.134
331.335
305.705
99.3919
58.0983
134.551
139.49
138.879
136.112
132.231
127.826
123.243
118.659
114.152
109.756
105.624
101.245
96.9194
92.8087
88.9012
85.1876
81.6593
78.3076
75.1261
72.1163
69.3241
67.0681
347.197
341.598
335.273
329.493
310.498
262.273
195.639
177.794
170.14
162.071
154.69
147.778
141.142
134.769
128.699
122.952
117.524
112.394
107.652
102.746
98.0759
93.6845
89.5486
85.6495
81.9706
78.4968
75.2164
72.1264
69.2685
66.9604
346.845
340.361
333.059
322.974
311.612
285.583
250.724
221.233
200.539
184.712
171.98
161.217
151.75
143.228
135.47
128.366
121.834
115.805
110.195
104.506
99.4258
94.6939
90.277
86.1473
82.2796
78.6516
75.2459
72.0536
69.1108
66.7329
346.48
339.119
330.867
320.41
305.919
290.643
266.459
242.272
220.933
202.733
187.213
173.809
162.051
151.601
142.228
133.766
126.091
119.103
112.708
106.132
100.647
95.5706
90.8663
86.4983
82.4346
78.646
75.1085
71.808
68.7739
66.3161
346.136
337.968
328.86
317.933
304.15
287.042
267.724
247.836
228.777
211.2
195.29
181.001
168.185
156.669
146.296
136.929
128.447
120.752
113.76
107.317
101.446
96.0598
91.0997
86.5192
82.2792
78.3451
74.6882
71.2896
68.1705
65.6297
345.828
336.922
327.024
315.564
301.962
286.034
268.393
250.061
232.031
214.938
199.089
184.577
171.379
159.414
148.575
138.755
129.849
121.764
114.413
107.693
101.557
95.94
90.7837
86.0389
81.6624
77.6161
73.868
70.3948
67.2085
64.5875
345.556
335.942
325.242
313.119
299.303
283.785
266.983
249.583
232.31
215.699
200.076
185.594
172.29
160.136
149.069
139.007
129.861
121.547
113.983
107.083
100.784
95.025
89.7477
84.902
80.4432
76.3313
72.5321
69.0191
65.7936
63.0997
345.313
334.957
323.33
310.322
295.926
280.278
263.736
246.805
230.016
213.804
198.458
184.14
170.91
158.76
147.654
137.528
128.309
119.917
112.277
105.312
98.9568
93.1499
87.8348
82.9614
78.4845
74.3634
70.5629
67.054
63.8271
61.0711
345.089
333.856
321.022
306.777
291.399
275.183
258.477
241.672
225.159
209.266
194.22
180.16
167.139
155.152
144.173
134.148
125.011
116.688
109.108
102.2
95.8983
90.1443
84.882
80.0621
75.6398
71.5746
67.8311
64.3787
61.1993
58.395
344.874
332.451
317.873
301.833
284.99
267.808
250.624
233.725
217.371
201.774
187.082
173.388
160.714
149.05
138.367
128.612
119.717
111.616
104.239
97.5183
91.3915
85.8005
80.6915
76.0162
71.7313
67.7967
64.1782
60.8434
57.7748
54.9411
344.655
330.36
313.009
294.292
275.39
256.886
239.042
221.984
205.811
190.6
176.404
163.245
151.11
139.973
129.788
120.496
112.032
104.328
97.3178
90.9363
85.1234
79.8234
74.9848
70.5612
66.5112
62.7959
59.3842
56.2384
53.3653
50.5306
344.404
326.616
304.438
281.685
260.077
240.07
221.635
204.613
188.883
174.349
160.952
148.636
137.347
127.029
117.62
109.054
101.265
94.1857
87.7517
81.9018
76.5793
71.732
67.3115
63.2745
59.5831
56.1987
53.0992
50.2282
47.6682
44.8823
343.961
318.104
286.86
258.317
233.739
212.662
194.302
178.05
163.479
150.29
138.31
127.407
117.486
108.464
100.267
92.8268
86.0767
79.954
74.3994
69.3575
64.7771
60.6118
56.8183
53.3583
50.1996
47.3023
44.667
42.1818
40.1044
37.4708
341.905
291.531
243.784
209.228
183.606
163.856
147.803
134.278
122.55
112.169
102.881
94.5157
86.9619
80.1284
73.9397
68.3386
63.2712
58.6869
54.5381
50.7809
47.3743
44.2828
41.4716
38.9111
36.581
34.4306
32.5233
30.6053
29.2609
27.0393
317.059
174.837
118.056
90.9774
75.3973
65.2381
57.8232
51.9799
47.1254
42.9438
39.2651
35.9893
33.0524
30.4138
28.0394
25.8964
23.9599
22.2092
20.6258
19.1921
17.8943
16.7139
15.6483
14.6635
13.7967
12.9453
12.2735
11.4801
11.0006
10.1439
347.069
341.125
334.394
328.076
311.388
278.862
229.949
208.576
191.03
177.266
166
156.304
147.639
139.745
132.499
125.823
119.652
113.93
108.596
103.087
98.2988
93.808
89.5925
85.6303
81.9018
78.3895
75.0794
71.966
69.0883
66.7603
346.953
340.725
333.718
327.462
311.642
283.218
241.349
217.341
197.798
182.587
170.204
159.65
150.325
141.917
134.258
127.245
120.796
114.844
109.32
103.729
98.7988
94.1894
89.876
85.8331
82.0383
78.4717
75.1171
71.9673
69.0594
66.7073
346.744
340.007
332.421
322.187
311.377
287.644
257.789
230.957
209.53
192.366
178.221
166.189
155.665
146.283
137.826
130.149
123.144
116.729
110.818
104.839
99.6585
94.8399
90.3522
86.1649
82.2511
78.5865
75.1514
71.9353
68.9723
66.5751
346.48
339.119
330.867
320.411
305.923
290.647
266.462
242.272
220.926
202.722
187.201
173.797
162.039
151.591
142.219
133.759
126.085
119.098
112.704
106.129
100.644
95.5683
90.8643
86.4967
82.4332
78.6447
75.1074
71.8071
68.7731
66.3154
346.199
338.187
329.255
318.471
304.747
291.699
271.15
249.69
229.429
211.17
194.992
180.687
167.985
156.641
146.455
137.27
128.956
121.41
114.539
107.277
101.488
96.1492
91.2229
86.6692
82.4504
78.5328
74.8887
71.5
68.3901
65.8628
345.926
337.279
327.685
316.488
302.986
286.846
268.902
250.24
231.955
214.717
198.818
184.327
171.192
159.309
148.559
138.825
130.001
121.99
114.714
108.023
101.936
96.3603
91.237
86.5174
82.1598
78.1269
74.3878
70.9204
67.7412
65.1415
345.673
336.411
326.153
314.457
300.921
285.443
268.505
250.893
233.409
216.636
200.91
186.377
173.061
160.92
149.879
139.847
130.734
122.451
114.915
108.03
101.745
95.9972
90.7263
85.8823
81.421
77.3028
73.4943
69.9704
66.7387
64.069
345.442
335.559
324.576
312.237
298.375
283.034
266.582
249.59
232.67
216.308
200.824
186.389
173.064
160.841
149.675
139.499
130.235
121.803
114.125
107.121
100.727
94.8819
89.5283
84.6158
80.0994
75.9383
72.0975
68.5494
65.292
62.5589
345.229
334.665
322.806
309.594
295.089
279.469
263.076
246.359
229.786
213.749
198.523
184.271
171.063
158.902
147.759
137.583
128.304
119.849
112.146
105.121
98.7094
92.8508
87.4891
82.5744
78.0616
73.9097
70.0832
66.5524
63.3053
60.5187
345.028
333.63
320.598
306.157
290.634
274.36
257.684
240.973
224.58
208.802
193.849
179.855
166.875
154.907
143.928
133.893
124.735
116.387
108.779
101.842
95.5133
89.733
84.4466
79.6049
75.1636
71.082
67.3249
63.8612
60.6715
57.8444
344.829
332.275
317.524
301.294
284.285
266.993
249.768
232.888
216.589
201.061
186.439
172.805
160.179
148.551
137.891
128.149
119.261
111.16
103.779
97.0529
90.9189
85.3202
80.2034
75.5209
71.2295
67.2895
63.6667
60.3286
57.2578
54.4083
344.624
330.224
312.72
293.82
274.739
256.096
238.168
221.081
204.922
189.75
175.605
162.5
150.416
139.324
129.176
119.914
111.473
103.787
96.7899
90.418
84.6121
79.3173
74.4824
70.0616
66.0141
62.301
58.8916
55.748
52.8789
50.0343
344.384
326.516
304.202
281.274
259.484
239.321
220.78
203.704
187.964
173.451
160.094
147.828
136.591
126.323
116.959
108.433
100.678
93.6271
87.2168
81.3863
76.0797
71.2454
66.8358
62.8078
59.1242
55.7466
52.6534
49.7872
47.2356
44.4441
343.95
318.035
286.671
257.965
233.213
211.983
193.512
177.198
162.607
149.432
137.488
126.632
116.763
107.793
99.6458
92.2497
85.5383
79.4489
73.9226
68.9043
64.3435
60.1946
56.4148
52.9662
49.8174
46.9281
44.3007
41.8199
39.7539
37.1155
341.901
291.49
243.643
208.952
183.184
163.306
147.16
133.584
121.841
111.474
102.218
93.8973
86.3908
79.6062
73.4636
67.9041
62.873
58.3196
54.1967
50.461
47.0721
43.995
41.1957
38.6447
36.3229
34.1782
32.2785
30.3599
29.0328
26.795
317.059
174.82
117.992
90.8571
75.2177
65.0087
57.557
51.6942
46.8355
42.662
38.9997
35.7446
32.8301
30.2122
27.8577
25.7326
23.812
22.0749
20.503
19.0788
17.7888
16.6147
15.5544
14.5734
13.7104
12.86
12.1959
11.3834
10.9874
10.0021
346.558
339.351
331.204
320.563
305.806
289.546
264.096
237.981
217.933
200.382
185.151
171.861
160.15
149.731
140.391
131.97
124.341
117.404
111.086
105.217
99.8388
94.8745
90.2735
85.9976
82.0139
78.2941
74.8158
71.5658
68.5731
66.1422
346.476
339.083
330.754
320.061
305.592
290.15
265.919
240.493
220.548
202.876
187.415
173.859
161.88
151.209
141.641
133.016
125.207
118.112
111.655
105.668
100.191
95.1417
90.4691
86.133
82.0988
78.3369
74.8235
71.5444
68.5273
66.0761
346.328
338.595
329.924
319.179
304.963
286.581
265.587
244.37
224.657
206.911
191.16
177.213
164.816
153.738
143.79
134.82
126.702
119.333
112.633
106.44
100.786
95.5869
90.7867
86.3425
82.2172
78.3792
74.8025
71.4708
68.409
65.9197
346.136
337.968
328.86
317.933
304.152
287.044
267.726
247.835
228.771
211.19
195.278
180.988
168.171
156.656
146.284
136.918
128.438
120.744
113.753
107.311
101.441
96.0556
91.096
86.516
82.2764
78.3427
74.6861
71.2877
68.1688
65.6282
345.926
337.279
327.685
316.488
302.987
286.847
268.902
250.239
231.953
214.713
198.814
184.321
171.187
159.304
148.554
138.821
129.997
121.987
114.711
108.021
101.933
96.3582
91.2352
86.5159
82.1585
78.1257
74.3867
70.9195
67.7404
65.1407
345.715
336.573
326.462
314.907
301.457
285.969
268.969
251.269
233.703
216.871
201.112
186.567
173.253
161.124
150.097
140.083
130.985
122.717
115.197
108.318
102.042
96.3012
91.0353
86.1944
81.7343
77.6157
73.8056
70.2792
67.0467
64.3856
345.512
335.862
325.187
313.166
299.551
284.333
267.897
250.851
233.85
217.406
201.853
187.366
174.004
161.756
150.573
140.384
131.109
122.668
114.981
107.964
101.557
95.6996
90.3327
85.4059
80.8741
76.6968
72.8393
69.2745
66.005
63.2849
345.32
335.128
323.797
311.152
297.129
281.835
265.604
248.923
232.305
216.183
200.855
186.501
173.197
160.948
149.725
139.475
130.128
121.61
113.847
106.764
100.297
94.3858
88.9737
84.0104
79.4505
75.253
71.3824
67.8098
64.5286
61.7555
345.136
334.322
322.163
308.657
293.94
278.242
261.901
245.324
228.923
213.046
197.946
183.78
170.623
158.481
147.335
137.138
127.83
119.34
111.6
104.538
98.091
92.1999
86.8092
81.8692
77.335
73.1655
69.3251
65.7835
62.5254
59.7085
344.957
333.354
320.058
305.332
289.564
273.135
256.406
239.725
223.412
207.731
192.872
178.958
166.04
154.116
143.166
133.147
123.997
115.65
108.038
101.096
94.7599
88.9726
83.6796
78.8324
74.387
70.3027
66.5445
63.081
59.8913
57.0431
344.776
332.052
317.064
300.558
283.285
265.79
248.445
231.523
215.241
199.766
185.211
171.647
159.087
147.517
136.907
127.205
118.349
110.274
102.914
96.2042
90.0839
84.4968
79.3902
74.717
70.4344
66.5029
62.8888
59.5591
56.4974
53.6352
344.584
330.047
312.329
293.161
273.808
254.934
236.846
219.673
203.49
188.341
174.244
161.201
149.184
138.158
128.071
118.865
110.473
102.829
95.8691
89.5293
83.7514
78.4811
73.6678
69.2665
65.2367
61.5397
58.1456
55.0158
52.1625
49.3129
344.358
326.38
303.875
280.692
258.631
238.229
219.508
202.324
186.537
172.028
158.708
146.499
135.33
125.131
115.836
107.374
99.6773
92.6786
86.3147
80.5252
75.2548
70.4524
66.0709
62.0681
58.407
55.0495
51.9751
49.1249
46.5929
43.8031
343.935
317.941
286.409
257.471
232.465
211.006
192.36
175.935
161.291
148.114
136.201
125.399
115.595
106.695
98.6172
91.2872
84.6366
78.6021
73.1247
68.1496
63.6269
59.5114
55.761
52.3382
49.2124
46.3432
43.735
41.2687
39.2228
36.5908
341.896
291.435
243.453
208.577
182.604
162.542
146.252
132.586
120.801
110.435
101.208
92.9341
85.4842
78.7616
72.6808
67.1797
62.202
57.6964
53.6156
49.9165
46.5594
43.51
40.7346
38.2042
35.9008
33.7712
31.8872
29.9781
28.6664
26.4368
317.059
174.801
117.913
90.7061
74.9869
64.707
57.1995
51.3018
46.4275
42.2554
38.6066
35.3727
32.4834
29.8909
27.5615
25.4605
23.562
21.8448
20.2905
18.8815
17.6047
16.4418
15.3914
14.4184
13.5631
12.7184
12.06
11.2526
10.8604
9.87783
346.125
337.881
328.625
317.461
303.477
286.057
266.52
246.195
227.028
209.455
193.59
179.362
166.618
155.182
144.895
135.616
127.224
119.614
112.697
106.361
100.565
95.2446
90.3461
85.823
81.6358
77.75
74.1371
70.7779
67.6903
65.1605
346.069
337.7
328.326
317.115
303.233
286.166
267.081
247.167
228.212
210.704
194.81
180.498
167.644
156.088
145.681
136.287
127.788
120.08
113.074
106.661
100.796
95.4165
90.4667
85.8996
81.675
77.7574
74.1179
70.7361
67.6293
65.0827
345.965
337.366
327.769
316.468
302.718
286.217
267.78
248.658
230.103
212.751
196.844
182.416
169.389
157.637
147.027
137.436
128.751
120.872
113.711
107.16
101.174
95.6888
90.6472
86.0012
81.7093
77.7347
74.047
70.6248
67.483
64.9048
345.828
336.922
327.024
315.563
301.962
286.034
268.392
250.058
232.025
214.929
199.076
184.563
171.365
159.4
148.562
138.742
129.838
121.754
114.405
107.686
101.55
95.9341
90.7786
86.0344
81.6585
77.6127
73.8649
70.3921
67.206
64.5853
345.673
336.411
326.152
314.456
300.92
285.442
268.505
250.891
233.406
216.631
200.904
186.369
173.053
160.912
149.871
139.84
130.727
122.445
114.91
108.025
101.741
95.9935
90.723
85.8794
81.4184
77.3005
73.4923
69.9686
66.7371
64.0675
345.512
335.862
325.187
313.165
299.551
284.333
267.896
250.85
233.848
217.404
201.85
187.363
174.001
161.752
150.569
140.381
131.106
122.665
114.979
107.962
101.555
95.6979
90.3311
85.4045
80.8729
76.6957
72.8383
69.2737
66.0042
63.2841
345.351
335.279
324.118
311.654
297.785
282.592
266.41
249.737
233.101
216.949
201.589
187.202
173.868
161.593
150.347
140.075
130.708
122.172
114.392
107.292
100.808
94.8815
89.4543
84.4763
79.9021
75.6906
71.8063
68.2206
64.9293
62.1612
345.192
334.647
322.886
309.815
295.478
280.055
263.876
247.365
230.962
215.04
199.872
185.628
172.389
160.17
148.947
138.679
129.302
120.749
112.948
105.829
99.3289
93.3872
87.9487
82.9633
78.3861
74.1758
70.2965
66.7185
63.4298
60.6196
345.036
333.922
321.374
307.454
292.383
276.459
260.035
243.491
227.191
211.439
196.461
182.4
169.325
157.244
146.139
135.969
126.677
118.196
110.459
103.398
96.9519
91.061
85.671
80.7328
76.2019
72.0375
68.2037
64.67
61.4173
58.574
344.877
333.018
319.367
304.235
288.088
271.369
254.468
237.726
221.432
205.818
191.049
177.228
164.398
152.553
141.671
131.709
122.607
114.3
106.723
99.8103
93.5008
87.7372
82.4661
77.6395
73.2138
69.1489
65.4097
61.9648
58.792
55.9278
344.713
331.771
316.455
299.552
281.884
264.058
246.484
229.438
213.12
197.669
183.178
169.695
157.225
145.744
135.218
125.594
116.808
108.797
101.493
94.8341
88.7593
83.2135
78.1445
73.5059
69.2554
65.3539
61.768
58.4649
55.4295
52.5613
344.537
329.815
311.795
292.242
272.487
253.261
234.91
217.575
201.321
186.168
172.116
159.145
147.217
136.286
126.295
117.179
108.872
101.307
94.4176
88.1424
82.4229
77.2055
72.4404
68.083
64.0933
60.4333
57.0736
53.975
51.1549
48.3087
344.324
326.198
303.418
279.868
257.414
236.657
217.663
200.3
184.422
169.895
156.607
144.465
133.383
123.282
114.087
105.722
98.1173
91.2044
84.9191
79.2012
73.9956
69.2519
64.9236
60.9688
57.3515
54.0339
50.9964
48.1783
45.683
42.905
343.915
317.811
286.04
256.769
231.402
209.613
190.706
174.109
159.372
146.171
134.286
123.546
113.825
105.019
97.0385
89.804
83.2443
77.2944
71.8945
66.99
62.5309
58.4727
54.7739
51.3975
48.3137
45.482
42.9094
40.4715
38.4609
35.8471
341.889
291.36
243.191
208.057
181.8
161.476
144.98
131.175
119.315
108.931
99.7275
91.5061
84.1255
77.4819
71.4832
66.0626
61.161
56.7258
52.7089
49.0675
45.7619
42.7583
40.0239
37.5298
35.2596
33.1579
31.3027
29.4134
28.1279
25.9189
317.058
174.778
117.815
90.5131
74.6863
64.3075
56.7193
50.7666
45.8621
41.6826
38.0432
34.8305
31.9695
29.4079
27.1105
25.0412
23.173
21.4839
19.9551
18.5691
17.313
16.1682
15.1343
14.1752
13.3332
12.499
11.8514
11.0531
10.6674
9.69574
345.765
336.619
326.378
314.529
300.606
284.445
266.677
248.221
230.149
213.06
197.238
182.763
169.61
157.696
146.913
137.154
128.313
120.292
113.003
106.355
100.284
94.7272
89.6286
84.9391
80.6156
76.6198
72.9195
69.4906
66.3393
63.7197
345.726
336.495
326.172
314.281
300.395
284.386
266.833
248.598
230.685
213.682
197.887
183.399
170.206
158.236
147.392
137.568
128.663
120.582
113.236
106.538
100.42
94.8226
89.6882
84.9674
80.6168
76.5978
72.8777
69.432
66.266
63.6326
345.653
336.261
325.782
313.803
299.964
284.196
266.991
249.149
231.522
214.684
198.953
184.456
171.203
159.143
148.193
138.259
129.244
121.057
113.613
106.824
100.625
94.9549
89.7566
84.98
80.5812
76.5207
72.7652
69.2894
66.0969
63.4378
345.556
335.942
325.24
313.116
299.301
283.783
266.98
249.578
232.303
215.69
200.064
185.58
172.276
160.122
149.055
138.994
129.849
121.536
113.973
107.074
100.777
95.0181
89.7415
84.8965
80.4384
76.327
72.5283
69.0156
65.7905
63.0969
345.442
335.559
324.575
312.235
298.374
283.033
266.58
249.587
232.665
216.302
200.816
186.38
173.055
160.831
149.666
139.49
130.227
121.796
114.119
107.115
100.721
94.8768
89.5238
84.6118
80.0958
75.9351
72.0947
68.5469
65.2896
62.5567
345.32
335.127
323.797
311.151
297.128
281.834
265.603
248.921
232.303
216.179
200.851
186.496
173.191
160.943
149.72
139.47
130.123
121.605
113.843
106.76
100.294
94.3827
88.9709
84.0078
79.4482
75.251
71.3806
67.8081
64.5271
61.7541
345.192
334.647
322.886
309.814
295.477
280.054
263.875
247.364
230.961
215.039
199.87
185.626
172.387
160.167
148.945
138.676
129.3
120.747
112.946
105.828
99.3273
93.3858
87.9474
82.9622
78.3851
74.1748
70.2957
66.7177
63.429
60.6189
345.062
334.1
321.785
308.119
293.271
277.512
261.19
244.693
228.4
212.628
197.613
183.506
170.382
158.251
147.097
136.88
127.543
119.02
111.243
104.145
97.6635
91.7397
86.3188
81.3516
76.7934
72.6033
68.7454
65.1891
61.9169
59.0759
344.928
333.445
320.381
305.876
290.263
273.929
257.26
240.623
224.34
208.672
193.811
179.874
166.92
154.95
143.943
133.86
124.643
116.228
108.55
101.542
95.1436
89.2971
83.9485
79.0495
74.5562
70.428
66.6295
63.1297
59.9063
57.0437
344.788
332.601
318.463
302.755
286.045
268.865
251.65
234.738
218.393
202.813
188.129
174.42
161.712
149.99
139.227
129.376
120.376
112.162
104.67
97.8353
91.5967
85.8984
80.6876
75.917
71.5436
67.5279
63.8352
60.4342
57.302
54.43
344.64
331.408
315.632
298.161
279.916
261.597
243.662
226.396
209.98
194.527
180.098
166.715
154.366
143.017
132.624
123.128
114.463
106.564
99.3644
92.8008
86.814
81.3489
76.3542
71.784
67.5968
63.7541
60.2231
56.9708
53.9855
51.1213
344.478
329.505
311.053
290.943
270.609
250.874
232.136
214.552
198.172
182.994
168.987
156.108
144.302
133.507
123.656
114.679
106.504
99.064
92.2913
86.1235
80.5027
75.3759
70.6939
66.4127
62.4932
58.8977
55.5979
52.5535
49.7903
46.9596
344.281
325.945
302.766
278.682
255.665
234.405
215.022
197.403
181.388
166.823
153.571
141.515
130.552
120.587
111.534
103.311
95.8437
89.0604
82.896
77.2897
72.1867
67.537
63.2945
59.4182
55.8728
52.6206
49.6443
46.8793
44.4433
41.6915
343.889
317.627
285.502
255.749
229.868
207.617
188.35
171.511
156.64
143.402