/*--------------------------------*- C++ -*----------------------------------*\
  =========                 |
  \\      /  F ield         | OpenFOAM: The Open Source CFD Toolbox
   \\    /   O peration     | Website:  https://openfoam.org
    \\  /    A nd           | Version:  10
     \\/     M anipulation  |
\*---------------------------------------------------------------------------*/
FoamFile
{
    format      ascii;
    class       volScalarField;
    location    "500";
    object      nut;
}
// * * * * * * * * * * * * * * * * * * * * * * * * * * * * * * * * * * * * * //

dimensions      [0 2 -1 0 0 0 0];

internalField   nonuniform List<scalar> 
27507
(
624.521
315.434
131.588
40.005
8.08429
15.1763
22.8467
31.8039
41.465
51.1155
60.2057
68.4004
75.546
82.4569
88.8804
92.22
94.7938
96.7377
98.1345
99.0623
99.5937
99.7954
99.7388
99.5482
99.9278
625.906
381.037
159.384
53.5395
7.36564
16.184
25.924
35.9825
45.9052
55.3228
63.9494
71.6089
78.2244
85.0077
91.4113
94.269
96.4584
98.0668
99.175
99.8578
100.183
100.211
100.009
99.6962
99.9768
627.517
511.052
230.961
87.1204
0.225863
10.9101
23.7098
36.0142
47.089
56.8793
65.4581
72.8997
79.2733
84.6417
90.461
96.0121
98.0144
99.4658
100.442
101.013
101.243
101.186
100.894
100.423
99.8837
99.9795
630.019
542.275
345.635
166.948
57.8865
0.401302
0.418537
15.1458
29.6632
43.1097
54.9193
64.8806
73.1197
79.8853
85.422
89.9284
93.5573
97.7772
101.834
102.706
103.186
103.335
103.205
102.842
102.287
101.575
100.75
99.9104
99.7592
633.12
555.858
448.72
308.791
172.966
72.1347
40.1358
52.025
61.0642
70.2475
78.5842
85.6772
91.4196
95.8994
99.3014
101.825
103.644
104.902
105.703
107.802
107.432
106.848
106.091
105.193
104.18
103.075
101.9
100.686
99.5103
99.0787
635.76
567.769
480.15
374.795
273.069
182.689
135.162
133.966
127.74
124.925
123.494
122.6
121.805
120.915
119.87
118.67
117.344
115.929
114.491
112.889
111.284
109.66
108.023
106.381
104.741
103.106
101.483
99.8882
98.3805
97.6645
637.08
574.518
499.294
415.322
333.269
266.294
219.99
189.532
172.154
160.475
152.154
145.796
140.56
136.04
132.009
128.337
124.947
121.788
118.843
116.039
113.389
110.88
108.492
106.213
104.032
101.94
99.9306
98.0094
96.2088
95.231
636.4
573.988
504.297
432.352
363.938
305.377
260.004
226.52
202.938
185.67
172.439
161.737
153.075
145.733
139.38
133.788
128.801
124.315
120.246
116.515
113.078
109.899
106.944
104.186
101.602
99.1714
96.8784
94.7204
92.6963
91.5017
632.898
564.096
493.707
427.285
367.575
316.471
274.865
242.039
216.708
196.95
181.27
168.435
157.601
148.579
140.823
134.059
128.093
122.781
118.017
113.71
109.792
106.211
102.921
99.8852
97.0715
94.4541
92.0082
89.7299
87.5753
86.2255
625.106
541.627
465.38
400.926
347.318
302.941
266.542
236.962
213.092
193.729
177.881
164.779
153.436
143.863
135.685
128.546
122.258
116.678
111.692
107.207
103.15
99.4619
96.0917
92.9994
90.1492
87.5139
85.0621
82.7975
80.6219
79.1905
609.946
501.353
416.384
353.477
305.982
268.806
238.829
214.262
193.971
177.061
162.92
150.971
140.506
131.583
123.875
117.112
111.139
105.829
101.08
96.8113
92.9532
89.4507
86.2559
83.3312
80.6403
78.1614
75.8539
73.7446
71.668
70.2362
580.264
435.356
344.323
286.764
247.614
218.86
196.281
177.834
162.416
149.259
138.088
128.263
119.762
112.347
105.829
100.066
94.9422
90.364
86.2544
82.5492
79.1939
76.1442
73.359
70.8101
68.461
66.3046
64.2827
62.4668
60.6146
59.2673
518.334
334.9
250.713
206.061
178.507
159.407
144.627
132.596
122.458
113.489
105.721
98.8492
92.7448
87.3148
82.4696
78.1329
74.2393
70.7328
67.5649
64.6939
62.0823
59.7013
57.5182
55.5197
53.6656
51.9761
50.3611
48.9562
47.4574
46.2806
383.652
202.105
147.166
122.175
107.616
97.9425
90.1875
83.9211
78.4825
73.5796
69.1626
65.1614
61.533
58.2363
55.2385
52.5132
50.0357
47.7817
45.7279
43.8536
42.1371
40.5659
39.1138
37.787
36.5364
35.4177
34.3056
33.3805
32.3712
31.4429
151.873
75.068
58.1213
50.5018
45.8623
42.7677
40.208
37.9839
35.974
34.1119
32.3804
30.7692
29.2783
27.8852
26.5845
25.381
24.2725
23.2533
22.3159
21.4538
20.6573
19.9251
19.2398
18.6173
18.0143
17.489
16.9479
16.48
16.0902
15.4565
12.4958
9.27997
7.62842
6.70065
6.10474
5.683
5.35396
5.07869
4.83702
4.61777
4.41517
4.22616
4.04901
3.8831
3.72752
3.58139
3.44417
3.3154
3.19466
3.08141
2.97534
2.87562
2.78263
2.69396
2.6135
2.53187
2.46673
2.38194
2.35012
2.22882
625.896
381.186
159.542
54.1458
7.03113
15.9714
25.8068
35.9168
45.8661
55.2985
63.9337
71.5983
78.2172
85.002
91.4053
94.2643
96.4547
98.0639
99.1726
99.8558
100.181
100.21
100.008
99.6952
99.976
626.945
443.743
188.725
64.869
7.90531
18.4524
29.5279
40.2138
50.2067
59.3448
67.5194
74.6732
80.7916
87.4388
93.825
96.2332
98.0416
99.3248
100.157
100.606
100.734
100.597
100.256
99.8266
100.012
628.518
536.556
261.326
104.7
1.99107
1.08595
14.471
28.0118
40.4671
51.4426
60.9564
69.1373
76.1254
82.0353
86.9629
92.6553
98.187
99.7805
100.885
101.566
101.888
101.906
101.671
101.228
100.63
99.9838
99.9918
631.006
546.531
398.058
190.051
79.3462
1.73999
2.51579
21.0475
35.4337
48.4137
59.6776
69.1079
76.8436
83.1309
88.2162
92.304
95.5525
99.6646
103.679
104.205
104.389
104.285
103.941
103.395
102.685
101.842
100.906
99.9714
99.7418
633.928
559.409
458.632
335.583
193.283
89.5483
53.0321
63.6775
69.9538
77.5707
84.7197
90.8467
95.7921
99.6064
102.444
104.481
105.877
106.767
107.247
109.291
108.642
107.816
106.852
105.777
104.612
103.378
102.094
100.785
99.529
99.0297
636.326
570.172
485.973
385.978
287.676
196.981
147.968
146.062
137.096
132.464
129.663
127.706
126.055
124.465
122.838
121.152
119.414
117.646
115.902
114.041
112.214
110.399
108.599
106.817
105.056
103.317
101.605
99.9334
98.3592
97.5863
637.435
575.984
502.609
421.349
341.721
276.124
229.491
197.948
179.024
166.247
156.793
149.645
143.758
138.703
134.23
130.188
126.484
123.059
119.886
116.887
114.07
111.416
108.903
106.516
104.242
102.069
99.9896
98.0082
96.1544
95.1303
636.598
574.793
506.052
435.449
368.396
310.72
265.485
231.678
207.426
189.478
175.679
164.413
155.314
147.605
140.945
135.093
129.887
125.211
120.979
117.107
113.548
110.263
107.216
104.378
101.725
99.2338
96.8881
94.6843
92.6191
91.3875
632.993
564.474
494.526
428.731
369.69
319.105
277.721
244.873
219.315
199.254
183.259
170.167
159.055
149.803
141.853
134.922
128.811
123.373
118.499
114.096
110.094
106.44
103.085
99.9929
97.1295
94.4684
91.9842
89.6721
87.4868
86.1081
625.138
541.753
465.662
401.45
348.155
304.06
267.842
238.331
214.423
194.961
178.985
165.754
154.298
144.593
136.308
129.071
122.697
117.04
111.986
107.44
103.329
99.5921
96.1789
93.0483
90.164
87.4985
85.0197
82.7312
80.5335
79.08
609.946
501.352
416.402
353.559
306.176
269.13
239.27
214.784
194.527
177.615
163.444
151.457
140.948
131.971
124.212
117.401
111.383
106.03
101.243
96.9385
93.0478
89.5156
86.2937
83.3445
80.6313
78.1323
75.8066
73.6811
71.5893
70.1408
580.252
435.31
344.248
286.684
247.557
218.852
196.331
177.943
162.567
149.437
138.28
128.454
119.95
112.521
105.987
100.205
95.0612
90.4633
86.3345
82.6105
79.2374
76.1708
73.3699
70.8062
68.4433
66.2743
64.2406
62.4141
60.552
59.1927
518.322
334.855
250.635
205.96
178.397
159.307
144.55
132.553
122.439
113.498
105.756
98.8957
92.7996
87.3726
82.5267
78.1865
74.2874
70.774
67.5983
64.719
62.0989
59.7093
57.5178
55.5111
53.6492
51.9524
50.3301
48.919
47.4139
46.2294
383.646
202.08
147.119
122.11
107.537
97.8611
90.1086
83.8559
78.4315
73.5443
69.1429
65.1535
61.534
58.2439
55.2503
52.5272
50.05
47.7951
45.7392
43.8621
42.1423
40.5674
39.1115
37.7809
36.5262
35.4039
34.2877
33.3601
32.3453
31.4158
151.872
75.0614
58.1063
50.4792
45.8316
42.733
40.1724
37.9509
35.9454
34.0886
32.3628
30.7567
29.2696
27.881
26.5837
25.3826
24.2754
23.2569
22.3194
21.4569
20.6595
19.9263
19.2397
18.6159
18.0113
17.4851
16.9415
16.4749
16.0767
15.4514
12.4958
9.27981
7.62778
6.69937
6.10276
5.68045
5.351
5.07557
4.83394
4.61488
4.41258
4.22391
4.04711
3.8815
3.72619
3.58029
3.44326
3.31465
3.19401
3.08083
2.97479
2.87507
2.78207
2.69336
2.61284
2.53117
2.46583
2.38145
2.34823
2.22911
627.503
511.162
231.328
88.9211
0.216159
10.5597
23.4537
35.8231
46.9529
56.7848
65.3927
72.8536
79.2405
84.6179
90.4422
95.9964
98.002
99.4559
100.434
101.007
101.237
101.181
100.89
100.42
99.881
99.9771
628.512
536.545
261.595
104.982
1.14191
1.07204
14.5299
27.9303
40.366
51.3608
60.8965
69.0945
76.0948
82.0132
86.9467
92.6428
98.1772
99.7727
100.879
101.561
101.884
101.902
101.668
101.226
100.628
99.9821
99.9902
630.425
545.178
342.404
156.821
45.9625
12.3319
26.9823
40.5053
52.428
62.5824
71.0749
78.1159
83.9247
88.6862
92.5444
97.3612
102.094
102.948
103.418
103.558
103.419
103.047
102.483
101.762
100.93
100.084
99.9278
632.766
554.185
443.448
268.513
141.281
41.4678
18.6388
25.6425
38.7488
51.1613
62.2762
71.8203
79.7058
86.0507
91.0736
95.0064
98.0506
100.365
103.705
106.987
106.883
106.526
105.958
105.217
104.335
103.338
102.252
101.111
100
99.6241
635.31
565.273
472.351
355.685
233.452
142.724
100.55
89.7808
90.3503
94.1922
98.4834
102.344
105.444
107.734
109.291
110.238
110.698
110.778
110.557
111.957
110.792
109.522
108.176
106.774
105.33
103.858
102.37
100.887
99.481
98.8552
637.284
574.175
495.133
402.943
312.454
239.015
193.294
168.438
155.028
146.385
141.109
137.16
133.896
130.986
128.27
125.671
123.163
120.74
118.43
116.089
113.851
111.686
109.584
107.542
105.558
103.627
101.751
99.9378
98.2399
97.361
638.027
578.428
508.063
431.182
356.012
291.918
244.878
212.84
191.579
176.682
165.318
156.7
149.602
143.555
138.26
133.531
129.246
125.329
121.734
118.375
115.249
112.328
109.585
106.998
104.552
102.23
100.023
97.9303
95.9781
94.8673
636.919
576.107
508.943
440.593
375.941
319.701
274.801
240.73
215.447
196.329
181.452
169.303
159.353
150.973
143.749
137.421
131.811
126.787
122.253
118.122
114.339
110.86
107.645
104.66
101.879
99.2772
96.8349
94.5469
92.4061
91.1053
633.132
565.048
495.816
431.08
373.214
323.542
282.597
249.792
223.891
203.325
186.773
173.238
161.646
151.96
143.664
136.43
130.055
124.387
119.313
114.735
110.58
106.792
103.32
100.124
97.1701
94.4294
91.8751
89.5017
87.2601
85.8275
625.17
541.894
466.031
402.219
349.46
305.87
269.996
240.638
216.693
197.077
180.887
167.434
155.785
145.847
137.37
129.961
123.432
117.637
112.459
107.803
103.594
99.7698
96.279
93.0792
90.1333
87.4129
84.8853
82.5536
80.3157
78.8209
609.926
501.288
416.339
353.585
306.384
269.568
239.922
215.593
195.413
178.512
164.298
152.252
141.673
132.606
124.76
117.865
111.767
106.34
101.485
97.1167
93.1681
89.5829
86.3127
83.3196
80.5666
78.0316
75.6731
73.5186
71.3991
69.92
580.217
435.187
344.053
286.461
247.365
218.741
196.324
178.044
162.748
149.679
138.544
128.732
120.228
112.778
106.217
100.405
95.2287
90.5976
86.4357
82.6795
79.2754
76.1793
73.3505
70.7608
68.3736
66.1822
64.1275
62.2825
60.4022
59.0214
518.294
334.754
250.464
205.736
178.149
159.071
144.351
132.416
122.344
113.456
105.765
98.9301
92.8529
87.4347
82.5905
78.2465
74.3397
70.8157
67.6275
64.7344
62.0999
59.6958
57.4897
55.4689
53.5932
51.8835
50.2485
48.8269
47.3091
46.1133
383.634
202.03
147.026
121.976
107.374
97.689
89.9375
83.7072
78.3078
73.4494
69.0772
65.1108
61.5091
58.2326
55.2481
52.5303
50.0551
47.7995
45.7409
43.8597
42.1345
40.5536
39.0912
37.754
36.4925
35.3639
34.2401
33.3096
32.2791
31.3588
151.871
75.0492
58.0779
50.4354
45.7714
42.6639
40.0998
37.8817
35.8833
34.0358
32.32
30.7235
29.2436
27.8633
26.5725
25.3761
24.272
23.255
22.3179
21.4549
20.6563
19.9215
19.2328
18.6069
17.9997
17.4716
16.9236
16.4635
16.0217
15.467
12.4958
9.27956
7.62663
6.69702
6.09904
5.67554
5.34521
5.06932
4.82763
4.60881
4.40697
4.21888
4.04269
3.87761
3.7228
3.57735
3.4407
3.31238
3.19195
3.07893
2.97298
2.87329
2.78028
2.69154
2.61086
2.52948
2.46242
2.38446
2.32484
2.24752
630
542.15
347.737
166.338
55.8274
0.178908
14.9833
29.475
42.8983
54.7201
64.7144
72.9902
79.7875
85.3487
89.8734
93.5156
97.7447
101.808
102.685
103.169
103.321
103.193
102.833
102.279
101.568
100.744
99.9055
99.7549
630.99
546.443
398.812
191.407
79.4832
1.72293
1.74833
20.9712
35.318
48.269
59.529
68.9787
76.7406
83.052
88.1564
92.2587
95.5178
99.6382
103.659
104.188
104.376
104.274
103.931
103.388
102.678
101.836
100.901
99.9674
99.7384
632.758
554.15
443.381
268.692
141.463
40.9433
18.5975
25.5383
38.6359
51.0763
62.2022
71.7493
79.6429
85.9991
91.033
94.9749
98.0262
100.346
103.691
106.976
106.874
106.518
105.951
105.212
104.33
103.335
102.249
101.108
99.9979
99.6221
634.871
563.198
466.464
343.417
213.312
122.249
70.057
63.7684
69.3357
76.8307
84.0736
90.3767
95.5186
99.5178
102.511
104.67
106.159
107.113
109.135
111.105
110.18
109.113
107.938
106.679
105.355
103.983
102.579
101.167
99.8227
99.2505
636.928
572.156
488.872
389.018
290.892
197.043
148.657
127.759
120.299
118.399
118.331
118.743
119.069
119.091
118.769
118.138
117.258
116.195
114.99
115.245
113.404
111.551
109.704
107.872
106.062
104.278
102.523
100.812
99.2069
98.4116
638.373
578.767
505.762
422.94
341.054
272.981
225.455
195.756
177.346
164.962
156.125
149.516
144.091
139.412
135.233
131.417
127.885
124.594
121.537
118.565
115.791
113.166
110.669
108.288
106.011
103.83
101.737
99.7398
97.8787
96.8576
638.666
581.119
514.206
442.449
372.543
311.845
264.94
231.178
207.253
189.783
176.389
165.702
157.053
149.711
143.338
137.704
132.657
128.096
123.949
120.119
116.589
113.32
110.276
107.43
104.759
102.244
99.8699
97.6332
95.5518
94.325
637.227
577.431
512.009
446.27
384.497
330.376
286.167
251.69
225.262
204.796
188.62
175.43
164.378
155.14
147.191
140.25
134.114
128.638
123.715
119.247
115.175
111.445
108.012
104.839
101.893
99.1478
96.5811
94.1849
91.9454
90.5523
633.222
565.483
496.968
433.422
376.986
328.515
288.228
255.535
229.3
208.181
191.003
176.875
164.778
154.528
145.795
138.177
131.467
125.508
120.179
115.378
111.029
107.069
103.448
100.12
97.0508
94.2086
91.5653
89.1139
86.7997
85.2952
625.14
541.838
466.123
402.718
350.573
307.631
272.235
243.122
219.192
199.439
183.027
169.315
157.455
147.243
138.533
130.912
124.192
118.226
112.895
108.103
103.772
99.8391
96.2511
92.9647
89.9417
87.1527
84.5638
82.1783
79.8892
78.3398
609.847
501.033
415.99
353.282
306.27
269.732
240.366
216.262
196.212
179.362
165.126
153.024
142.381
133.222
125.278
118.287
112.096
106.583
101.645
97.2016
93.1831
89.5338
86.2049
83.1582
80.3565
77.7774
75.3787
73.1885
71.0347
69.515
580.138
434.922
343.639
285.967
246.877
218.338
196.052
177.916
162.735
149.763
138.671
128.893
120.408
112.946
106.363
100.521
95.3117
90.645
86.4466
82.6541
79.2144
76.0841
73.2227
70.6022
68.1861
65.9679
63.888
62.0205
60.1187
58.7088
518.241
334.575
250.165
205.343
177.702
158.623
143.94
132.082
122.064
113.254
105.633
98.8408
92.7975
87.3997
82.5657
78.2239
74.3132
70.7809
67.5811
64.6742
62.0245
59.6044
57.382
55.3451
53.4535
51.7287
50.0788
48.6438
47.1139
45.8986
383.614
201.95
146.878
121.765
107.11
97.4032
89.6446
83.4377
78.0684
73.2484
68.9155
64.9821
61.4073
58.1523
55.1838
52.4765
50.0072
47.7538
45.6943
43.8098
42.0798
40.4928
39.0234
37.679
36.4097
35.2737
34.1423
33.2042
32.1684
31.2364
151.869
75.0314
58.0359
50.3701
45.6802
42.5565
39.9842
37.7676
35.7765
33.9404
32.2376
30.6537
29.1841
27.8155
26.5343
25.3452
24.246
23.2321
22.2965
21.4337
20.6343
19.8981
19.2072
18.5791
17.9692
17.4383
16.8878
16.4239
15.9819
15.4212
12.4958
9.27921
7.62499
6.69362
6.09358
5.6682
5.33636
5.05955
4.8175
4.5988
4.39742
4.20999
4.03456
3.87017
3.71603
3.5712
3.43508
3.3072
3.18713
3.07437
2.9686
2.86902
2.77606
2.68729
2.60662
2.52502
2.45817
2.37939
2.32071
2.24198
633.119
555.918
449.497
320.717
172.014
70.5048
39.095
51.405
60.7019
69.9772
78.3478
85.4704
91.2449
95.7569
99.188
101.736
103.574
104.847
105.659
107.767
107.404
106.824
106.072
105.177
104.166
103.064
101.891
100.677
99.5031
99.0724
633.916
559.342
458.23
334.76
193.162
88.8377
52.6931
62.8942
69.6116
77.3299
84.5182
90.6721
95.6444
99.4853
102.346
104.404
105.816
106.719
107.209
109.262
108.617
107.796
106.835
105.763
104.6
103.368
102.085
100.778
99.5226
99.0241
635.3
565.223
472.195
355.496
233.376
142.521
100.364
89.5155
90.1252
94.0197
98.3444
102.227
105.346
107.653
109.226
110.186
110.655
110.744
110.529
111.937
110.775
109.508
108.165
106.764
105.321
103.851
102.364
100.882
99.4764
98.8511
636.923
572.135
488.818
388.942
290.827
196.963
148.541
127.639
120.198
118.317
118.265
118.689
119.024
119.054
118.738
118.113
117.238
116.178
114.977
115.234
113.395
111.544
109.698
107.867
106.058
104.274
102.52
100.809
99.2045
98.4094
638.396
578.53
504.28
419.003
334.683
253.067
200.58
171.154
155.617
146.901
141.553
137.745
134.683
131.954
129.373
126.867
124.415
122.021
119.69
118.452
115.863
113.364
110.966
108.663
106.451
104.324
102.277
100.316
98.4898
97.5019
639.279
582.732
515.273
441.054
367.922
304.889
257.138
223.876
200.997
184.773
172.419
162.814
154.986
148.328
142.515
137.339
132.668
128.414
124.531
120.868
117.507
114.377
111.447
108.694
106.099
103.644
101.318
99.1193
97.078
95.8957
639.11
583.152
519.269
452.263
387.548
330.498
284.453
249.411
223.187
203.29
187.764
175.135
164.74
155.998
148.453
141.836
135.963
130.699
125.951
121.611
117.643
113.997
110.628
107.501
104.589
101.867
99.3128
96.9211
94.6985
93.3406
637.34
578.102
514.054
450.671
391.715
339.894
296.728
262.11
234.778
213.11
195.689
181.456
169.347
159.175
150.47
142.876
136.182
130.226
124.889
120.065
115.686
111.689
108.025
104.651
101.531
98.6352
95.9371
93.427
91.0811
89.5842
633.13
565.31
497.169
434.611
379.559
332.394
292.937
260.528
234.124
212.577
194.854
180.164
167.606
156.802
147.627
139.619
132.567
126.31
120.718
115.687
111.138
107.002
103.226
99.7632
96.5746
93.6282
90.8932
88.362
85.9713
84.3866
624.951
541.262
465.415
402.246
350.649
308.379
273.561
244.808
221.01
201.221
184.662
170.744
158.711
148.263
139.335
131.515
124.613
118.482
113.002
108.076
103.625
99.5845
95.9004
92.5283
89.4287
86.5717
83.9221
81.4835
79.142
77.532
609.644
500.383
415.041
352.247
305.358
269.09
240.042
216.222
196.373
179.645
165.447
153.336
142.67
133.457
125.44
118.372
112.105
106.516
101.506
96.9943
92.9121
89.2035
85.8199
82.723
79.8752
77.2544
74.8174
72.5938
70.4064
68.8417
579.977
434.404
342.843
284.996
245.853
217.373
195.218
177.25
162.218
149.388
138.37
128.666
120.231
112.787
106.205
100.354
95.1268
90.4375
86.2132
82.393
78.9249
75.7663
72.877
70.2297
67.788
65.5458
63.4431
61.5552
59.6341
58.1913
518.147
334.272
249.674
204.698
176.955
157.842
143.182
131.403
121.447
112.74
105.198
98.4737
92.4855
87.1277
82.3209
77.9959
74.0936
70.5632
67.3604
64.4468
61.7878
59.3566
57.122
55.0724
53.1676
51.4302
49.7676
48.3199
46.7825
45.5416
383.583
201.833
146.662
121.455
106.717
96.9643
89.1826
82.9908
77.65
72.8743
68.5867
64.6956
61.1575
57.934
54.9904
52.3019
49.8458
47.6006
45.5455
43.6623
41.9309
40.341
38.8672
37.5175
36.2423
35.1
33.9633
33.0147
31.987
31.0234
151.867
75.0079
57.9798
50.281
45.5537
42.404
39.8156
37.5953
35.6086
33.7834
32.0944
30.5253
29.0683
27.7143
26.4458
25.2669
24.1754
23.167
22.2348
21.374
20.5752
19.8386
19.1467
18.517
17.9052
17.3715
16.8214
16.3441
15.946
15.3042
12.4958
9.27877
7.62291
6.6892
6.08632
5.65823
5.32407
5.04563
4.80266
4.58369
4.38253
4.19565
4.02097
3.85732
3.70397
3.55989
3.42446
3.29719
3.17763
3.06528
2.95984
2.86049
2.76771
2.679
2.59851
2.51648
2.45126
2.36579
2.33359
2.21197
635.758
567.785
480.288
374.618
272.217
181.706
134.378
133.451
127.362
124.628
123.255
122.403
121.641
120.78
119.759
118.58
117.27
115.869
114.441
112.849
111.25
109.632
108
106.361
104.724
103.092
101.471
99.8775
98.3712
97.6563
636.317
570.127
485.795
385.255
287.166
196.366
147.416
145.709
136.772
132.205
129.456
127.535
125.913
124.347
122.742
121.073
119.349
117.593
115.859
114.005
112.184
110.374
108.578
106.799
105.04
103.304
101.594
99.9238
98.3507
97.5789
637.275
574.13
495.001
402.656
312.188
238.738
193.028
168.187
154.802
146.198
140.956
137.034
133.79
130.899
128.197
125.612
123.114
120.7
118.396
116.061
113.828
111.666
109.567
107.528
105.546
103.617
101.742
99.9301
98.2331
97.3549
638.367
578.74
505.694
422.817
340.924
272.834
225.301
195.609
177.216
164.85
156.032
149.438
144.026
139.358
135.188
131.379
127.854
124.568
121.515
118.547
115.776
113.153
110.658
108.278
106.003
103.823
101.731
99.7345
97.8741
96.8534
639.276
582.721
515.249
441.012
367.872
304.83
257.076
223.816
200.943
184.726
172.378
162.78
154.957
148.305
142.495
137.322
132.654
128.402
124.521
120.86
117.499
114.371
111.442
108.69
106.095
103.641
101.315
99.1167
97.0757
95.8937
639.645
584.764
521.221
453.626
387.801
329.732
283.103
247.954
221.894
202.29
187.068
174.703
164.592
156.064
148.695
142.222
136.465
131.293
126.62
122.33
118.407
114.797
111.458
108.356
105.461
102.75
100.205
97.8181
95.604
94.2601
639.07
583.5
521.433
457.999
397.644
344.071
299.502
264.065
236.368
214.619
197.249
183.109
171.11
161.087
152.468
144.946
138.306
132.391
127.084
122.275
117.903
113.909
110.24
106.857
103.723
100.81
98.093
95.5611
93.2059
91.7177
637.025
577.315
513.71
451.946
395.325
345.695
303.854
269.565
241.83
219.38
201.044
185.92
173.062
162.04
152.673
144.508
137.32
130.938
125.233
120.095
115.443
111.211
107.342
103.791
100.517
97.4884
94.6754
92.0665
89.6241
88.0252
632.668
563.907
495.424
433.34
379.389
333.485
295.018
263.145
236.868
215.169
197.139
182.064
169.197
157.982
148.449
140.13
132.802
126.299
120.492
115.272
110.555
106.274
102.369
98.7934
95.5061
92.4734
89.6629
87.0668
84.61
82.9475
624.458
539.7
463.198
399.924
348.693
307.046
272.872
244.628
221.145
201.502
184.963
170.977
158.877
148.307
139.245
131.293
124.268
118.021
112.434
107.41
102.871
98.7504
94.9942
91.5574
88.4
85.4917
82.7961
80.3184
77.9347
76.2667
609.213
499.015
413.023
349.923
303.038
266.997
238.286
214.817
195.264
178.765
164.712
152.678
142.072
132.89
124.863
117.773
111.476
105.852
100.806
96.257
92.1377
88.3933
84.9756
81.8467
78.969
76.3209
73.8582
71.6131
69.4015
67.7943
579.666
433.442
341.398
283.238
243.951
215.481
193.448
175.668
160.823
148.193
137.298
127.732
119.393
112.02
105.486
99.6644
94.4549
89.7734
85.55
81.7255
78.2495
75.0806
72.1794
69.5195
67.0647
64.8099
62.6941
60.7953
58.8628
57.3893
517.979
333.763
248.876
203.663
175.751
156.556
141.893
130.187
120.297
111.714
104.272
97.645
91.7399
86.4509
81.6982
77.4146
73.5429
70.0342
66.8459
63.9412
61.2866
58.8566
56.6205
54.5678
52.6584
50.916
49.2475
47.7934
46.2543
44.9906
383.532
201.657
146.346
121.002
106.142
96.3097
88.4808
82.288
76.9693
72.2395
68.0026
64.1636
60.6734
57.4935
54.5873
51.9295
49.4976
47.271
45.2295
43.3558
41.6307
40.0444
38.572
37.2226
35.9461
34.8019
33.6634
32.7089
31.6888
30.7047
151.864
74.9773
57.9059
50.1619
45.3821
42.1929
39.5772
37.3444
35.3565
33.5394
31.8636
30.3101
28.8682
27.5313
26.2788
25.1136
24.0333
23.0336
22.1081
21.252
20.4564
19.722
19.031
18.4019
17.7898
17.2552
16.7057
16.2231
15.8341
15.1791
12.4958
9.27826
7.62036
6.68363
6.07697
5.64508
5.30751
5.02644
4.7817
4.56179
4.36039
4.17377
3.99968
3.83675
3.68423
3.54102
3.40644
3.27996
3.16112
3.04939
2.94448
2.84557
2.75317
2.66472
2.58451
2.5026
2.43753
2.35217
2.32048
2.19761
637.076
574.504
499.264
415.114
332.778
265.767
219.513
189.12
171.828
160.202
151.937
145.616
140.41
135.915
131.905
128.25
124.874
121.728
118.792
115.996
113.353
110.85
108.467
106.191
104.013
101.924
99.9165
97.9971
96.198
95.2214
637.427
575.948
502.501
421.037
341.347
275.727
229.127
197.624
178.746
166.009
156.6
149.485
143.624
138.591
134.137
130.11
126.419
123.005
119.84
116.848
114.037
111.388
108.88
106.496
104.224
102.054
99.9766
97.9968
96.1444
95.1214
638.019
578.392
507.969
430.982
355.775
291.661
244.626
212.605
191.37
176.504
165.166
156.573
149.496
143.466
138.185
133.468
129.193
125.285
121.696
118.343
115.222
112.305
109.565
106.982
104.537
102.218
100.012
97.9207
95.9697
94.8597
638.66
581.093
514.146
442.339
372.409
311.693
264.784
231.029
207.117
189.665
176.286
165.616
156.979
149.649
143.285
137.659
132.62
128.064
123.922
120.096
116.57
113.303
110.262
107.418
104.748
102.235
99.8617
97.6259
95.5454
94.3192
639.106
583.138
519.238
452.21
387.482
330.421
284.372
249.332
223.114
203.224
187.706
175.085
164.698
155.962
148.422
141.81
135.94
130.68
125.934
121.596
117.631
113.986
110.618
107.493
104.582
101.86
99.3074
96.9164
94.6943
93.3368
639.069
583.495
521.421
457.981
397.62
344.044
299.473
264.035
236.34
214.593
197.227
183.089
171.092
161.072
152.455
144.935
138.296
132.383
127.077
122.269
117.898
113.904
110.236
106.853
103.72
100.807
98.0905
95.5589
93.2039
91.7159
638.191
580.978
518.844
457.368
400.24
349.786
307.153
272.263
244.121
221.413
202.914
187.68
174.748
163.68
154.266
146.064
138.843
132.433
126.7
121.533
116.853
112.593
108.698
105.121
101.822
98.7684
95.9315
93.2986
90.8409
89.2386
635.967
574.044
509.419
448.208
393.271
345.628
305.361
271.946
244.457
221.84
203.116
187.502
174.255
162.704
152.886
144.345
136.825
130.154
124.197
118.841
114.002
109.608
105.599
101.927
98.5502
95.4335
92.5453
89.8737
87.3625
85.6764
631.565
560.406
490.462
428.136
374.898
330.168
292.856
261.855
236.111
214.665
196.696
181.554
168.617
157.253
147.538
139.072
131.602
124.968
119.042
113.716
108.906
104.542
100.565
96.9265
93.5845
90.5051
87.654
85.0255
82.5276
80.8006
623.435
536.453
458.479
394.634
343.554
302.496
269.064
241.519
218.595
199.359
183.089
169.259
157.263
146.759
137.706
129.749
122.706
116.435
110.821
105.769
101.201
97.0544
93.2733
89.8138
86.6359
83.7099
80.9981
78.5092
76.1055
74.391
608.376
496.411
409.228
345.524
298.51
262.673
234.351
211.336
192.212
176.092
162.339
150.508
140.097
131.071
123.136
116.116
109.869
104.281
99.26
94.7271
90.6184
86.8805
83.4661
80.3386
77.4609
74.8125
72.3481
70.1044
67.8872
66.2472
579.089
431.711
338.874
280.217
240.687
212.187
190.28
172.725
158.127
145.774
135.074
125.732
117.566
110.341
103.921
98.1915
93.0541
88.4294
84.2503
80.4603
77.0109
73.8624
70.9769
68.3291
65.8833
63.6361
61.5249
59.6325
57.7033
56.2066
517.679
332.896
247.57
202.008
173.846
154.52
139.828
128.191
118.376
109.945
102.634
96.1442
90.362
85.1815
80.5211
76.3144
72.5061
69.0491
65.9024
63.0312
60.4031
57.9942
55.7745
53.7351
51.8356
50.1017
48.4389
46.9901
45.4592
44.1791
383.447
201.383
145.871
120.332
105.295
95.3415
87.4366
81.2232
75.9186
71.2365
67.0575
63.2828
59.8554
56.7351
53.8828
51.2719
48.88
46.6866
44.6723
42.8208
41.1133
39.5414
38.0799
36.7396
35.4696
34.331
33.197
32.2432
31.2352
30.237
151.858
74.9356
57.8054
49.9989
45.1463
41.8998
39.242
36.9853
34.9885
33.1756
31.5115
29.9746
28.5503
27.2333
26.0007
24.8537
23.7893
22.8029
21.8883
21.0412
20.2527
19.5242
18.8375
18.212
17.6025
17.0697
16.523
16.0385
15.6564
14.997
12.4958
9.27765
7.61719
6.67652
6.06478
5.62763
5.28518
5.00016
4.7525
4.53077
4.32846
4.14166
3.96792
3.80563
3.65396
3.51174
3.3782
3.25275
3.13489
3.02406
2.91998
2.82179
2.73008
2.64215
2.56252
2.48092
2.41638
2.33116
2.30001
2.17701
636.394
573.965
504.24
432.197
363.656
305.047
259.68
226.225
202.687
185.457
172.256
161.586
152.947
145.625
139.288
133.71
128.735
124.258
120.198
116.474
113.043
109.869
106.918
104.164
101.582
99.1544
96.8636
94.7073
92.6847
91.4913
636.591
574.764
505.978
435.282
368.16
310.449
265.216
231.428
207.206
189.289
175.516
164.276
155.198
147.507
140.861
135.022
129.826
125.159
120.934
117.069
113.516
110.235
107.192
104.358
101.706
99.2179
96.8742
94.672
92.6083
91.3778
636.912
576.08
508.877
440.466
375.772
319.507
274.603
240.541
215.275
196.179
181.323
169.189
159.258
150.892
143.679
137.361
131.76
126.743
122.216
118.09
114.311
110.836
107.624
104.642
101.863
99.2634
96.8228
94.5363
92.3966
91.0968
637.221
577.409
511.962
446.187
384.389
330.251
286.036
251.561
225.143
204.689
188.526
175.347
164.308
155.079
147.139
140.204
134.075
128.604
123.686
119.222
115.153
111.427
107.996
104.824
101.88
99.1369
96.5715
94.1764
91.9378
90.5454
637.336
578.089
514.026
450.624
391.654
339.822
296.651
262.033
234.705
213.043
195.629
181.404
169.3
159.135
150.435
142.846
136.155
130.203
124.869
120.048
115.67
111.676
108.014
104.641
101.522
98.6273
95.9301
93.4208
91.0756
89.5792
637.023
577.307
513.695
451.924
395.295
345.66
303.815
269.526
241.792
219.344
201.012
185.892
173.036
162.017
152.654
144.491
137.304
130.925
125.221
120.084
115.434
111.203
107.335
103.784
100.512
97.4835
94.6711
92.0626
89.6206
88.022
635.967
574.041
509.414
448.2
393.261
345.615
305.348
271.932
244.443
221.827
203.104
187.491
174.245
162.695
152.878
144.338
136.819
130.149
124.192
118.837
113.998
109.604
105.596
101.924
98.5478
95.4314
92.5433
89.872
87.361
85.675
633.692
566.847
499.237
437.416
383.615
337.885
299.524
267.593
241.086
219.036
200.59
185.062
171.851
160.23
150.294
141.66
134.045
127.286
121.248
115.824
110.925
106.481
102.431
98.7262
95.3232
92.1873
89.2845
86.6062
84.0709
82.325
629.381
553.5
480.549
417.199
364.404
320.897
285.023
255.326
230.616
209.931
192.495
177.713
165.016
153.837
144.231
135.835
128.414
121.815
115.912
110.605
105.81
101.459
97.4933
93.8661
90.5357
87.4689
84.63
82.018
79.5187
77.7513
621.493
530.392
449.799
384.881
333.842
293.471
261.003
234.453
212.421
193.927
178.248
164.87
153.205
143.015
134.176
126.386
119.476
113.312
107.784
102.804
98.2959
94.1999
90.463
87.0423
83.8989
81.0049
78.3209
75.8623
73.4729
71.7325
606.818
491.684
402.539
337.924
290.73
255.173
227.386
205.009
186.519
170.986
157.742
146.288
136.262
127.536
119.841
113.017
106.931
101.476
96.5653
92.1252
88.0948
84.4235
81.0664
77.9888
75.1545
72.5454
70.1142
67.9053
65.711
64.0548
578.02
428.618
334.542
275.197
235.37
206.861
185.142
167.9
153.654
141.69
131.29
122.292
114.405
107.424
101.212
95.6562
90.6656
86.1645
82.0896
78.3877
75.0131
71.9285
69.0977
66.4974
64.0923
61.882
59.8012
57.9399
56.0362
54.5293
517.126
331.378
245.391
199.349
170.866
151.377
136.655
125.109
115.397
107.165
100.035
93.7374
88.1333
83.1143
78.5967
74.5146
70.8137
67.4487
64.3805
61.5762
59.0051
56.645
54.4669
52.4637
50.5948
48.8888
47.2487
45.8215
44.3147
43.0272
383.294
200.927
145.116
119.302
104.027
93.9086
85.9002
79.6526
74.36
69.7331
65.626