/*--------------------------------*- C++ -*----------------------------------*\
  =========                 |
  \\      /  F ield         | OpenFOAM: The Open Source CFD Toolbox
   \\    /   O peration     | Website:  https://openfoam.org
    \\  /    A nd           | Version:  10
     \\/     M anipulation  |
\*---------------------------------------------------------------------------*/
FoamFile
{
    format      ascii;
    class       volScalarField;
    location    "500";
    object      omega;
}
// * * * * * * * * * * * * * * * * * * * * * * * * * * * * * * * * * * * * * //

dimensions      [0 0 -1 0 0 0 0];

internalField   nonuniform List<scalar> 
27507
(
0.55875
0.694146
1.21388
7.73756
3.1174
3.08425
2.78318
2.40816
2.0717
1.79825
1.58293
1.41402
1.28037
1.15984
1.05297
0.988338
0.933528
0.886152
0.844817
0.808414
0.776057
0.747051
0.720837
0.697015
0.673963
0.557098
0.673916
1.06931
5.14358
4.25249
3.59904
2.9109
2.40136
2.03167
1.7576
1.54977
1.38883
1.26173
1.14428
1.03958
0.97822
0.925673
0.880139
0.840267
0.805011
0.773551
0.745247
0.719584
0.696197
0.673493
0.554909
0.650542
0.89398
2.52379
22.355
5.94888
3.8023
2.8173
2.26037
1.90332
1.65466
1.4712
1.33014
1.2183
1.11189
1.01548
0.959777
0.911617
0.869497
0.832281
0.799094
0.769249
0.742211
0.717545
0.694951
0.672876
0.551797
0.632937
0.825564
1.44491
5.15767
72.581
59.3392
7.58662
4.32304
3.04922
2.38187
1.9767
1.7062
1.51282
1.36723
1.25319
1.16105
1.07028
0.985749
0.937206
0.894557
0.856698
0.822796
0.792202
0.764393
0.738963
0.715572
0.693998
0.672712
0.548188
0.613677
0.745059
1.05018
1.79842
3.86047
5.75041
4.01147
3.12932
2.52451
2.1135
1.8253
1.61572
1.45778
1.33474
1.236
1.15469
1.08625
1.02751
0.956366
0.91507
0.878031
0.844548
0.814082
0.786201
0.760545
0.736823
0.714787
0.694307
0.673833
0.545108
0.597688
0.689782
0.85559
1.11978
1.58474
1.95411
1.77646
1.70621
1.60429
1.49962
1.40218
1.31516
1.23863
1.17147
1.11231
1.05983
1.01289
0.970402
0.932152
0.897255
0.865255
0.83576
0.808454
0.783071
0.759401
0.737265
0.716495
0.697051
0.677269
0.543299
0.588113
0.658193
0.764472
0.910618
1.07421
1.21152
1.29899
1.31883
1.30536
1.27252
1.23045
1.18562
1.14094
1.09782
1.05691
1.0184
0.982305
0.948421
0.916722
0.887003
0.859081
0.832822
0.808096
0.784781
0.76276
0.741936
0.722199
0.703618
0.684274
0.543314
0.586459
0.647205
0.727525
0.826002
0.931469
1.02569
1.09584
1.13415
1.14762
1.14395
1.13016
1.1082
1.08226
1.05423
1.02533
0.996366
0.967785
0.9399
0.912928
0.886963
0.862047
0.838178
0.815344
0.793519
0.772665
0.75275
0.733693
0.715712
0.696423
0.545838
0.594664
0.656612
0.728854
0.80819
0.888445
0.961029
1.01903
1.05835
1.08038
1.08802
1.08545
1.07622
1.06039
1.04087
1.01903
0.995828
0.97195
0.947857
0.923891
0.900289
0.877211
0.854759
0.832998
0.811972
0.791687
0.772172
0.753329
0.735617
0.715853
0.552214
0.61706
0.691195
0.767402
0.841932
0.911565
0.972592
1.02182
1.05736
1.0797
1.09032
1.09107
1.0866
1.07565
1.05991
1.04134
1.02084
0.999117
0.976692
0.953969
0.931248
0.908751
0.886636
0.865012
0.843968
0.823529
0.803792
0.784553
0.766724
0.745751
0.565535
0.663642
0.764634
0.856011
0.934408
0.999945
1.05328
1.09454
1.12383
1.14212
1.15023
1.14991
1.14489
1.13365
1.11793
1.09932
1.07865
1.0566
1.03369
1.01034
0.986862
0.963508
0.940461
0.917838
0.895773
0.87425
0.85351
0.833029
0.814642
0.791402
0.594046
0.759283
0.910236
1.02847
1.11557
1.17818
1.223
1.25371
1.27259
1.28213
1.28226
1.27718
1.26589
1.24984
1.23024
1.20806
1.18406
1.15885
1.13292
1.10666
1.08039
1.05432
1.02867
1.00351
0.979059
0.955126
0.932332
0.909298
0.889849
0.86268
0.664504
0.975695
1.21559
1.36967
1.46127
1.51189
1.53956
1.55099
1.5506
1.54443
1.53036
1.51127
1.48816
1.46177
1.43292
1.40232
1.37057
1.33818
1.30555
1.273
1.24082
1.20918
1.17832
1.14815
1.11917
1.09059
1.06416
1.0362
1.01505
0.981035
0.896587
1.57444
1.951
2.11822
2.17845
2.18024
2.16539
2.13387
2.09587
2.05549
2.01239
1.96733
1.92074
1.87327
1.8254
1.77746
1.72975
1.68255
1.63617
1.59077
1.54664
1.50373
1.46252
1.42231
1.38458
1.34659
1.3135
1.27559
1.25121
1.20465
2.25129
3.88437
4.19795
4.15082
4.01634
3.84884
3.69715
3.55846
3.43083
3.31225
3.20022
3.09329
2.99013
2.89175
2.79797
2.7078
2.62089
2.53716
2.4567
2.37945
2.30571
2.23489
2.16818
2.10306
2.04411
1.98267
1.93354
1.8722
1.83454
1.76532
25.3733
18.8433
15.4898
13.6059
12.3959
11.5395
10.8714
10.3125
9.82176
9.37656
8.96517
8.58137
8.22166
7.88478
7.56887
7.27215
6.99351
6.73205
6.48686
6.25692
6.04153
5.83904
5.65021
5.47021
5.30666
5.14156
5.00677
4.84453
4.74127
4.55683
0.557106
0.673956
1.071
5.32312
4.34812
3.6257
2.91832
2.40385
2.03267
1.75806
1.55
1.38895
1.26181
1.14433
1.03962
0.978251
0.925695
0.880155
0.840279
0.805021
0.773559
0.745253
0.719588
0.696201
0.673496
0.555787
0.660247
0.975229
3.80491
5.2956
3.82805
2.92223
2.36035
1.98455
1.71723
1.51825
1.36512
1.24417
1.12968
1.02689
0.968523
0.918255
0.874492
0.836
0.80182
0.7712
0.743556
0.718412
0.695437
0.673064
0.553697
0.642351
0.852436
2.20395
64.3171
16.4983
5.70295
3.63993
2.71508
2.19018
1.85277
1.6175
1.44367
1.30968
1.20307
1.09917
1.0043
0.951226
0.905075
0.864508
0.828499
0.796258
0.767157
0.740707
0.716508
0.694287
0.672512
0.55068
0.626921
0.797277
1.299
3.84973
54.8511
26.9603
6.39948
3.93988
2.87107
2.2825
1.91448
1.66414
1.48296
1.34538
1.2369
1.14878
1.05989
0.976592
0.930139
0.889107
0.852514
0.819609
0.789802
0.762621
0.737692
0.714703
0.693453
0.672428
0.547306
0.609078
0.727638
0.975601
1.6119
3.16183
4.55565
3.41678
2.82843
2.35459
2.00981
1.75806
1.56986
1.42522
1.3109
1.21814
1.14111
1.07581
1.01945
0.9492
0.909474
0.873674
0.841177
0.811499
0.78425
0.759104
0.735793
0.71409
0.693883
0.673628
0.544495
0.594701
0.680602
0.829268
1.06224
1.47289
1.79724
1.6465
1.60882
1.53177
1.44567
1.36169
1.28449
1.21514
1.1533
1.09812
1.04868
1.0041
0.963474
0.926682
0.892943
0.86187
0.833121
0.806418
0.781528
0.758261
0.736454
0.715954
0.696734
0.677131
0.542909
0.586302
0.653252
0.752656
0.887377
1.03637
1.16381
1.24866
1.27482
1.26754
1.24263
1.20637
1.16635
1.12553
1.08549
1.04702
1.01046
0.975926
0.943303
0.912622
0.883727
0.856483
0.830781
0.806512
0.783575
0.761867
0.741302
0.721779
0.703378
0.684178
0.543083
0.585421
0.644551
0.721764
0.81543
0.915259
1.0051
1.07307
1.11219
1.12782
1.12653
1.11562
1.09604
1.07218
1.0459
1.01847
0.990722
0.963158
0.936125
0.909861
0.884486
0.86006
0.8366
0.814108
0.792569
0.771954
0.75224
0.73335
0.715513
0.696337
0.545714
0.594109
0.655225
0.725954
0.803073
0.880744
0.951105
1.00769
1.04674
1.0693
1.07795
1.07633
1.0684
1.05371
1.03519
1.01423
0.991806
0.96859
0.945065
0.921584
0.898394
0.875666
0.853512
0.832004
0.811192
0.79109
0.771729
0.753016
0.735419
0.715744
0.552156
0.616801
0.690541
0.766031
0.839449
0.907757
0.967545
1.01586
1.05099
1.07335
1.08429
1.08551
1.08147
1.07119
1.056
1.03796
1.01793
0.996631
0.97458
0.952184
0.92975
0.907501
0.885601
0.864163
0.84328
0.822979
0.803361
0.784223
0.766485
0.745583
0.565514
0.663552
0.764396
0.855469
0.933349
0.998205
1.05082
1.09146
1.12035
1.13846
1.14659
1.14638
1.14155
1.13061
1.11518
1.09686
1.07647
1.05468
1.03202
1.00888
0.985606
0.962428
0.939536
0.91705
0.895106
0.873688
0.85304
0.832638
0.814325
0.791143
0.594044
0.759288
0.910241
1.02841
1.1153
1.17756
1.22196
1.25222
1.27076
1.28004
1.28004
1.27492
1.26363
1.24767
1.22821
1.20618
1.18233
1.15728
1.1315
1.10539
1.07925
1.05331
1.02777
1.00271
0.978353
0.954501
0.931781
0.908807
0.88942
0.862301
0.66451
0.975756
1.21576
1.36992
1.4615
1.51195
1.53934
1.55038
1.54975
1.54327
1.52891
1.5097
1.48652
1.46011
1.43129
1.40074
1.36907
1.33677
1.30423
1.27178
1.2397
1.20814
1.17737
1.14728
1.11838
1.08986
1.06349
1.03558
1.01448
0.980507
0.896594
1.57456
1.95133
2.11873
2.17903
2.18067
2.16562
2.13373
2.0954
2.0547
2.01131
1.96605
1.91935
1.8718
1.82389
1.77595
1.72827
1.68113
1.63481
1.58949
1.54543
1.5026
1.46145
1.42131
1.38364
1.3457
1.31268
1.27477
1.2505
1.20389
2.25129
3.88457
4.19843
4.15137
4.0169
3.84912
3.69707
3.55796
3.42995
3.31106
3.19879
3.0917
2.98851
2.89002
2.79618
2.70601
2.61914
2.53548
2.45509
2.37792
2.30426
2.23352
2.16687
2.1018
2.04292
1.98148
1.93247
1.8709
1.83394
1.76385
25.3733
18.843
15.4885
13.6033
12.3919
11.5344
10.8654
10.3061
9.8155
9.37069
8.95991
8.5768
8.21781
7.88152
7.56616
7.26992
6.99167
6.73051
6.48554
6.25574
6.04042
5.83793
5.64908
5.46897
5.30539
5.13998
5.00546
4.84212
4.74073
4.55367
0.55492
0.650597
0.894194
2.53218
21.4927
6.06781
3.82727
2.82646
2.26445
1.90532
1.65571
1.47179
1.33049
1.21852
1.11203
1.01559
0.959853
0.911674
0.86954
0.832314
0.799119
0.769269
0.742227
0.717558
0.694961
0.672884
0.553702
0.642362
0.851994
2.18843
84.5939
18.8037
5.67896
3.64541
2.71924
2.19239
1.85395
1.61815
1.44405
1.30991
1.20321
1.09927
1.00436
0.951273
0.90511
0.864534
0.82852
0.796274
0.76717
0.740717
0.716516
0.694294
0.672517
0.551444
0.62965
0.788219
1.48504
6.3603
8.4514
4.52686
3.1421
2.43655
2.01222
1.7304
1.52981
1.3794
1.26199
1.16745
1.0726
0.984532
0.936086
0.89351
0.855718
0.82188
0.791342
0.763586
0.738204
0.714853
0.693315
0.672081
0.548697
0.616398
0.756063
1.09703
2.19734
6.3189
10.464
6.93586
4.39325
3.16887
2.48462
2.05814
1.77117
1.56643
1.41331
1.29427
1.1987
1.11992
1.0381
0.960388
0.917625
0.879479
0.845155
0.814045
0.785665
0.759622
0.735605
0.713348
0.692691
0.672137
0.545786
0.601491
0.703759
0.905808
1.33369
2.01528
2.56366
2.57254
2.31941
2.04263
1.81002
1.62418
1.47657
1.35806
1.26129
1.18077
1.11257
1.05382
1.00244
0.936481
0.899558
0.865984
0.835266
0.807016
0.780916
0.756697
0.734136
0.713043
0.693336
0.673475
0.543443
0.589705
0.666334
0.792125
0.97601
1.19899
1.37398
1.45081
1.44921
1.41359
1.35485
1.29219
1.23111
1.17386
1.12115
1.07293
1.02885
0.988445
0.951143
0.916966
0.885313
0.855914
0.828518
0.802913
0.778921
0.756389
0.735185
0.715179
0.69637
0.677087
0.542242
0.583246
0.645138
0.733966
0.850305
0.980466
1.09353
1.1683
1.20114
1.20423
1.19082
1.16425
1.13241
1.09824
1.06355
1.02938
0.996293
0.964548
0.934192
0.905352
0.877951
0.851937
0.827249
0.803817
0.78157
0.760433
0.740341
0.72121
0.703141
0.684194
0.542696
0.583679
0.64012
0.71224
0.79791
0.888954
0.971593
1.035
1.07466
1.09356
1.09654
1.08961
1.07448
1.05424
1.03105
1.00622
0.980646
0.95492
0.929426
0.904447
0.880143
0.856609
0.833895
0.812026
0.79101
0.770832
0.751485
0.732901
0.715328
0.696352
0.545514
0.593209
0.652943
0.721141
0.794484
0.867818
0.93434
0.988298
1.02666
1.04996
1.0603
1.06024
1.05442
1.04187
1.02509
1.0057
0.984654
0.962631
0.940132
0.917529
0.895088
0.872998
0.851386
0.830338
0.809918
0.790147
0.771069
0.752592
0.735206
0.715685
0.552071
0.616414
0.689529
0.76383
0.835365
0.901391
0.958999
1.00565
1.03998
1.06227
1.07371
1.07571
1.0724
1.06328
1.04908
1.03196
1.01278
0.992234
0.970856
0.949052
0.927135
0.905337
0.883828
0.862728
0.842136
0.822086
0.802685
0.783729
0.76616
0.745379
0.565493
0.663458
0.764107
0.854713
0.931739
0.995426
1.04677
1.08628
1.11441
1.13213
1.14027
1.14023
1.13568
1.12523
1.11031
1.09251
1.07261
1.05129
1.02905
1.00631
0.983389
0.960527
0.937916
0.915678
0.893952
0.872725
0.852246
0.831984
0.81381
0.790724
0.594051
0.759351
0.910367
1.02848
1.11507
1.17675
1.22039
1.24984
1.26773
1.27649
1.27627
1.27099
1.25964
1.24384
1.22459
1.20281
1.17923
1.15445
1.12894
1.10308
1.07718
1.05146
1.02613
1.00126
0.977064
0.953359
0.930776
0.907908
0.888644
0.861595
0.664525
0.975907
1.21616
1.37054
1.46214
1.51231
1.53921
1.54953
1.54844
1.54137
1.52642
1.50696
1.4836
1.45712
1.42832
1.39785
1.3663
1.33414
1.30176
1.26948
1.23757
1.20618
1.17556
1.14561
1.11684
1.08843
1.06218
1.03434
1.01339
0.979417
0.896608
1.57479
1.95199
2.11976
2.18023
2.18161
2.16622
2.13363
2.09467
2.05334
2.00937
1.96371
1.91673
1.869
1.82101
1.77305
1.72541
1.67835
1.63214
1.58694
1.54302
1.50032
1.4593
1.41927
1.38173
1.34387
1.31098
1.27302
1.2492
1.20205
2.2513
3.88493
4.19931
4.15238
4.01792
3.84961
3.69687
3.55693
3.42816
3.30863
3.19586
3.08844
2.98514
2.88644
2.7925
2.70231
2.6155
2.53194
2.45169
2.37467
2.30115
2.23054
2.16403
2.09906
2.0403
1.97887
1.93014
1.86772
1.83505
1.75756
25.3733
18.8425
15.4862
13.5986
12.3843
11.5244
10.8536
10.2934
9.80268
9.35836
8.94853
8.5666
8.20884
7.87364
7.55929
7.26395
6.98646
6.7259
6.48138
6.25188
6.03674
5.83432
5.64546
5.46524
5.30157
5.1357
5.00198
4.83411
4.74978
4.53424
0.551813
0.633074
0.826201
1.44664
5.35361
92.9337
7.66318
4.34472
3.05982
2.38782
1.98017
1.70827
1.51408
1.36803
1.2537
1.1614
1.07051
0.985911
0.937328
0.894649
0.856769
0.822852
0.792245
0.764428
0.738991
0.715595
0.694016
0.672727
0.550693
0.627017
0.797647
1.29765
3.84615
57.6877
33.2308
6.41599
3.94954
2.87718
2.28648
1.91698
1.66569
1.48393
1.346
1.23731
1.14906
1.06007
0.976717
0.930233
0.889179
0.85257
0.819652
0.789837
0.762649
0.737715
0.714721
0.693467
0.67244
0.548704
0.616436
0.756173
1.09653
2.19491
6.40577
10.5197
6.96188
4.40366
3.17311
2.48689
2.05964
1.77218
1.5671
1.41376
1.29457
1.19891
1.12006
1.0382
0.960452
0.917674
0.879517
0.845185
0.814069
0.785683
0.759637
0.735618
0.713358
0.6927
0.672144
0.546324
0.604335
0.714007
0.940473
1.46083
2.33608
3.57885
3.46932
2.8923
2.40415
2.04559
1.78383
1.58869
1.43922
1.32152
1.22639
1.14766
1.08114
1.00972
0.940599
0.902393
0.867848
0.836378
0.80754
0.780973
0.756385
0.73354
0.712225
0.692336
0.672368
0.543986
0.592704
0.676796
0.823638
1.05166
1.47502
1.79244
1.89632
1.83653
1.71228
1.58211
1.46374
1.36099
1.27298
1.19752
1.13229
1.07533
1.02503
0.980151
0.920927
0.887511
0.856746
0.828287
0.801858
0.777228
0.754198
0.732604
0.712296
0.693237
0.673865
0.542216
0.583945
0.650226
0.751721
0.891794
1.05151
1.18748
1.26605
1.29
1.28029
1.25086
1.21058
1.16721
1.12379
1.08181
1.04194
1.0044
0.969162
0.936016
0.905128
0.87611
0.848839
0.823171
0.798974
0.776137
0.754553
0.734127
0.714756
0.696479
0.67759
0.541485
0.57978
0.635979
0.713222
0.810544
0.917233
1.01303
1.08168
1.11955
1.13255
1.12869
1.1139
1.09122
1.06481
1.03654
1.00763
0.978829
0.950568
0.92307
0.896558
0.871067
0.846629
0.82324
0.800882
0.779524
0.759124
0.739642
0.721013
0.703372
0.684734
0.542281
0.581787
0.635226
0.701635
0.778428
0.858974
0.93296
0.991629
1.03128
1.05324
1.06073
1.05794
1.04813
1.03221
1.01276
0.991137
0.968294
0.94488
0.921335
0.897991
0.875053
0.852661
0.830902
0.809835
0.789489
0.769874
0.750997
0.732804
0.715572
0.696832
0.545327
0.592338
0.650605
0.715982
0.784979
0.853167
0.915025
0.965837
1.00312
1.02701
1.03903
1.04108
1.03721
1.02739
1.01275
0.995306
0.975977
0.955452
0.934249
0.91276
0.891273
0.869995
0.849075
0.828616
0.808695
0.789348
0.77063
0.752453
0.735338
0.715997
0.552019
0.616154
0.688707
0.761767
0.831207
0.894525
0.949462
0.994034
1.02722
1.04927
1.06116
1.06405
1.0615
1.05371
1.04071
1.02472
1.00659
0.986987
0.96645
0.94539
0.924125
0.902896
0.881881
0.861209
0.840987
0.821255
0.802129
0.783402
0.766052
0.745407
0.565508
0.66353
0.764135
0.854369
0.930521
0.992866
1.04267
1.08075
1.10784
1.12495
1.13297
1.13308
1.12876
1.11881
1.10449
1.08728
1.06799
1.04723
1.02552
1.00326
0.980773
0.958303
0.936043
0.914115
0.892664
0.871676
0.851411
0.831324
0.813332
0.79035
0.594091
0.759583
0.910864
1.02911
1.11549
1.17655
1.21928
1.24769
1.2647
1.27268
1.2721
1.26652
1.25498
1.23929
1.22023
1.19871
1.17543
1.15095
1.12576
1.1002
1.07459
1.04915
1.02406
0.999419
0.975437
0.951916
0.929505
0.906772
0.887666
0.8607
0.664563
0.976213
1.21695
1.37178
1.46356
1.51347
1.53978
1.54914
1.54741
1.53946
1.52369
1.50379
1.48008
1.45343
1.42456
1.39413
1.36268
1.33066
1.29847
1.26638
1.23466
1.20347
1.17304
1.14327
1.11467
1.08641
1.06031
1.03257
1.01177
0.977858
0.896633
1.57516
1.95305
2.12143
2.18223
2.18331
2.16747
2.13393
2.09405
2.05178
2.00695
1.96065
1.91322
1.86516
1.81697
1.76892
1.72128
1.6743
1.6282
1.58315
1.53939
1.49685
1.456
1.41613
1.37874
1.34101
1.30826
1.27038
1.2467
1.19959
2.25131
3.88545
4.20057
4.15382
4.01938
3.85031
3.69654
3.55537
3.42543
3.30489
3.19132
3.08333
2.97977
2.88071
2.78657
2.69632
2.60955
2.52611
2.44603
2.3692
2.2959
2.22548
2.15917
2.09435
2.03576
1.97442
1.92585
1.86346
1.83087
1.75338
25.3732
18.8418
15.4828
13.5917
12.3732
11.5095
10.8357
10.2736
9.78212
9.33804
8.92913
8.54854
8.19232
7.85851
7.54554
7.25145
6.97506
6.7154
6.47159
6.24262
6.02785
5.82564
5.63689
5.45662
5.29292
5.12679
4.99295
4.8248
4.74016
4.52451
0.54819
0.613624
0.743928
1.02295
1.81025
3.95522
5.88181
4.0575
3.14702
2.53319
2.11876
1.82875
1.61805
1.45937
1.33584
1.23676
1.15523
1.08664
1.02779
0.956567
0.915224
0.878151
0.844643
0.814157
0.786261
0.760593
0.736862
0.714819
0.694333
0.673854
0.547317
0.609154
0.728274
0.978199
1.61337
3.18804
4.58028
3.45566
2.84145
2.36114
2.01382
1.76074
1.57171
1.42651
1.3118
1.21878
1.14156
1.07614
1.01969
0.949368
0.909604
0.873775
0.841257
0.811563
0.784302
0.759146
0.735827
0.714118
0.693906
0.673647
0.545795
0.601545
0.70399
0.906303
1.33423
2.01825
2.56853
2.58007
2.32488
2.04602
1.81221
1.62569
1.47765
1.35884
1.26185
1.18118
1.11286
1.05404
1.00261
0.936595
0.899647
0.866054
0.835322
0.807061
0.780953
0.756727
0.73416
0.713063
0.693353
0.673488
0.54399
0.592726
0.676872
0.823802
1.05191
1.47564
1.79386
1.8981
1.83802
1.71338
1.58289
1.46431
1.3614
1.27329
1.19775
1.13246
1.07546
1.02513
0.980228
0.92098
0.887553
0.85678
0.828314
0.80188
0.777246
0.754213
0.732616
0.712306
0.693245
0.673872
0.542295
0.584563
0.652921
0.760069
0.910554
1.15266
1.35183
1.45886
1.47432
1.4375
1.37752
1.31175
1.24727
1.18709
1.13204
1.082
1.0365
0.994996
0.956971
0.90566
0.875934
0.848142
0.822084
0.797596
0.774538
0.752779
0.732217
0.712748
0.694388
0.675503
0.541119
0.578789
0.635944
0.717573
0.823507
0.940822
1.04575
1.11776
1.15402
1.16206
1.15311
1.13213
1.10457
1.07403
1.04241
1.01082
0.979901
0.94998
0.921172
0.893727
0.86749
0.84248
0.818656
0.795971
0.774371
0.753798
0.7342
0.715506
0.697802
0.679295
0.540866
0.576884
0.628099
0.695296
0.776472
0.863674
0.943935
1.00594
1.0458
1.06565
1.07002
1.06419
1.05051
1.03155
1.00961
0.985977
0.961544
0.93689
0.912381
0.888324
0.864864
0.842105
0.820105
0.798895
0.778483
0.758864
0.740029
0.721931
0.704749
0.6864
0.542006
0.580449
0.631404
0.692826
0.761714
0.832712
0.898403
0.952232
0.99102
1.01501
1.02624
1.02718
1.02195
1.01047
0.994717
0.976361
0.956334
0.935323
0.913818
0.892192
0.870697
0.849516
0.828772
0.808552
0.788915
0.769891
0.751508
0.733722
0.716855
0.698324
0.545274
0.592003
0.649287
0.712346
0.777452
0.840778
0.898063
0.945614
0.981469
1.00551
1.01883
1.0228
1.02063
1.01339
1.0009
0.985417
0.967838
0.948854
0.928993
0.908665
0.888173
0.867746
0.847549
0.827704
0.808304
0.789396
0.77105
0.75318
0.736354
0.717159
0.552088
0.616394
0.688845
0.761119
0.828846
0.889686
0.941964
0.984336
1.01615
1.03767
1.04975
1.05336
1.05144
1.04481
1.03296
1.01808
1.00098
0.982316
0.962627
0.942321
0.921722
0.901074
0.880565
0.86033
0.840486
0.821077
0.802231
0.783731
0.766615
0.746072
0.565624
0.664042
0.765043
0.855349
0.930989
0.992206
1.04052
1.07708
1.10294
1.11921
1.12688
1.12697
1.12272
1.1131
1.09926
1.08259
1.06383
1.0436
1.02239
1.0006
0.978548
0.956466
0.934554
0.912937
0.89176
0.871011
0.850961
0.831044
0.813248
0.79034
0.594202
0.760179
0.91214
1.03096
1.1175
1.17814
1.22001
1.24728
1.26325
1.27018
1.2691
1.26296
1.25106
1.23528
1.21628
1.19491
1.17183
1.14761
1.12268
1.0974
1.07206
1.04687
1.02203
0.997607
0.973833
0.950495
0.928259
0.905658
0.886723
0.859826
0.664645
0.976796
1.2184
1.37409
1.46638
1.51621
1.54195
1.55022
1.5477
1.5385
1.52184
1.50119
1.47689
1.44986
1.42077
1.39024
1.3588
1.32685
1.29478
1.26284
1.23131
1.20029
1.17005
1.14046
1.11203
1.08393
1.05798
1.03037
1.00968
0.975903
0.896677
1.57574
1.95464
2.12397
2.18534
2.18619
2.16984
2.13516
2.0941
2.05054
2.00458
1.95736
1.90922
1.86062
1.81206
1.76379
1.71606
1.66907
1.62305
1.57812
1.53451
1.49215
1.45148
1.41177
1.37456
1.33698
1.30437
1.2667
1.24281
1.19637
2.25132
3.88612
4.20221
4.15569
4.02128
3.8512
3.69605
3.55321
3.42167
3.29967
3.18493
3.07605
2.97199
2.87239
2.77789
2.68747
2.60069
2.51736
2.43747
2.36086
2.28781
2.21765
2.15158
2.08698
2.02862
1.96749
1.91889
1.85755
1.82069
1.75082
25.3732
18.8409
15.4786
13.5827
12.3585
11.4892
10.8107
10.2453
9.75199
9.30735
8.89889
8.51943
8.16472
7.83244
7.52104
7.22849
6.9535
6.69507
6.4523
6.22417
6.01005
5.80833
5.61993
5.43985
5.27624
5.11032
4.97536
4.81167
4.70837
4.52179
0.54511
0.597676
0.689595
0.855706
1.12339
1.59348
1.96533
1.78328
1.71112
1.60783
1.50218
1.40407
1.31658
1.2397
1.17228
1.11292
1.06029
1.01325
0.970682
0.93237
0.897426
0.865392
0.835869
0.808542
0.783143
0.75946
0.737314
0.716535
0.697085
0.677296
0.544503
0.59475
0.680851
0.830777
1.06417
1.4776
1.80387
1.6505
1.61252
1.53455
1.44772
1.36322
1.28565
1.21602
1.15397
1.09864
1.04909
1.00441
0.963718
0.926872
0.893094
0.86199
0.833218
0.806497
0.781592
0.758313
0.736498
0.71599
0.696765
0.677155
0.543452
0.589752
0.66651
0.792685
0.976859
1.2004
1.3759
1.45296
1.45125
1.41528
1.35616
1.29321
1.2319
1.17448
1.12163
1.07331
1.02914
0.988675
0.951325
0.91711
0.885428
0.856007
0.828593
0.802974
0.778971
0.756431
0.73522
0.715208
0.696395
0.677107
0.542221
0.583973
0.650314
0.75194
0.892142
1.05209
1.1883
1.26699
1.29092
1.28111
1.25153
1.21112
1.16764
1.12413
1.08208
1.04216
1.00457
0.969303
0.936129
0.905218
0.876183
0.848898
0.82322
0.799014
0.77617
0.754581
0.73415
0.714775
0.696495
0.677603
0.541121
0.5788
0.635975
0.717642
0.823619
0.941006
1.046
1.11806
1.15432
1.16233
1.15336
1.13233
1.10473
1.07417
1.04252
1.01091
0.979976
0.950041
0.921222
0.893768
0.867523
0.842507
0.818678
0.795989
0.774387
0.753811
0.734211
0.715515
0.697809
0.679301
0.540479
0.57557
0.626341
0.6942
0.77735
0.867279
0.950076
1.01337
1.05322
1.07208
1.07507
1.06791
1.05262
1.03242
1.00943
0.984956
0.959848
0.93468
0.909784
0.885459
0.861795
0.83888
0.816765
0.795478
0.775022
0.755384
0.736549
0.718469
0.701295
0.683063
0.540647
0.575598
0.623642
0.683769
0.753315
0.826379
0.894472
0.94996
0.989343
1.01299
1.02334
1.02325
1.01692
1.00415
0.98757
0.968526
0.947966
0.926556
0.904766
0.882959
0.861362
0.840144
0.819416
0.799256
0.77971
0.760803
0.742553
0.724924
0.708163
0.689996
0.542082
0.580494
0.630312
0.688471
0.751608
0.81527
0.874119
0.923424
0.960616
0.985428
0.99906
1.00313
1.00078
0.993261
0.98069
0.96517
0.947626
0.928756
0.909081
0.888998
0.868803
0.848712
0.82888
0.809422
0.790418
0.771918
0.75397
0.736531
0.719992
0.701566
0.545525
0.592867
0.650277
0.712275
0.774772
0.834346
0.887745
0.932276
0.966458
0.990134
1.00409
1.00943
1.00843
1.00316
0.992492
0.97865
0.96256
0.944901
0.926203
0.906882
0.887256
0.867569
0.848002
0.82869
0.809739
0.791206
0.773175
0.755551
0.738983
0.719835
0.55241
0.617665
0.690974
0.763473
0.830427
0.889557
0.939655
0.979957
1.01025
1.03091
1.04276
1.04668
1.04508
1.03917
1.02816
1.01412
0.997818
0.979907
0.960902
0.94121
0.921155
0.900985
0.880892
0.861017
0.841482
0.822334
0.803716
0.785387
0.76848
0.747943
0.565937
0.665416
0.767666
0.858926
0.934818
0.995479
1.04263
1.07777
1.10231
1.11748
1.12445
1.12424
1.11976
1.11007
1.09646
1.08008
1.06166
1.04177
1.02091
0.999451
0.977709
0.955918
0.934271
0.91289
0.891925
0.87136
0.85148
0.831679
0.814065
0.791146
0.594453
0.761455
0.914851
1.03504
1.12239
1.18309
1.22434
1.2505
1.26531
1.27092
1.2691
1.26202
1.24953
1.23333
1.21411
1.19265
1.16958
1.14543
1.12062
1.09549
1.07031
1.04529
1.02062
0.996361
0.972743
0.949542
0.92745
0.904934
0.88617
0.85927
0.66481
0.977879
1.22099
1.37822
1.47158
1.52168
1.547
1.5541
1.55064
1.5399
1.52207
1.50032
1.47514
1.44743
1.41785
1.387
1.35536
1.32333
1.29125
1.25936
1.22792
1.19702
1.16691
1.13745
1.10917
1.08118
1.05538
1.02786
1.00732
0.973605
0.896756
1.57664
1.95706
2.12782
2.19013
2.19092
2.17403
2.13804
2.09552
2.05031
2.00288
1.95436
1.9052
1.85578
1.80659
1.7579
1.70991
1.6628
1.61675
1.57187
1.52837
1.48613
1.44563
1.40609
1.36906
1.33163
1.29919
1.2617
1.23775
1.1917
2.25133
3.88698
4.20428
4.15807
4.02371
3.85234
3.69537
3.55037
3.41667
3.29268
3.17629
3.06611
2.96119
2.86081
2.76576
2.67504
2.58816
2.50488
2.42516
2.34879
2.27603
2.20616
2.14043
2.0761
2.01805
1.95716
1.90877
1.84787
1.81043
1.74166
25.3732
18.8399
15.4734
13.5714
12.3395
11.4625
10.7771
10.2064
9.70941
9.26289
8.85393
8.475
8.1215
7.79067
7.48096
7.19017
6.9169
6.66008
6.41876
6.19189
5.97887
5.77803
5.59041
5.41085
5.24783
5.08208
4.94761
4.78393
4.68023
4.4948
0.543304
0.588127
0.65822
0.764757
0.91195
1.07635
1.21414
1.30179
1.32125
1.30744
1.27415
1.23175
1.18665
1.14176
1.09848
1.05743
1.01882
0.982638
0.948688
0.916936
0.887177
0.859222
0.832938
0.808191
0.784859
0.762825
0.741991
0.722244
0.703656
0.684305
0.542916
0.586338
0.653384
0.753175
0.888342
1.03786
1.16565
1.2507
1.27674
1.26923
1.244
1.20747
1.16724
1.12624
1.08606
1.04748
1.01083
0.976222
0.943541
0.912815
0.883884
0.856611
0.830885
0.806599
0.783647
0.761927
0.741352
0.721821
0.703414
0.684206
0.542249
0.583282
0.645255
0.734294
0.850868
0.981333
1.09465
1.16958
1.2024
1.20536
1.19179
1.16506
1.13307
1.09877
1.06398
1.02973
0.996579
0.964781
0.934382
0.905507
0.878077
0.852041
0.827334
0.803888
0.781629
0.760482
0.740383
0.721245
0.70317
0.684218
0.54149
0.579806
0.636052
0.713396
0.810836
0.91768
1.01363
1.08237
1.12026
1.1332
1.12928
1.1144
1.09164
1.06516
1.03683
1.00787
0.979024
0.950729
0.923203
0.896668
0.871157
0.846704
0.823302
0.800934
0.779568
0.75916
0.739673
0.721039
0.703394
0.684752
0.540869
0.576898
0.628136
0.695375
0.776605
0.863875
0.944203
1.00625
1.04613
1.06597
1.07031
1.06445
1.05073
1.03174
1.00977
0.98611
0.961656
0.936984
0.912459
0.88839
0.864918
0.84215
0.820144
0.798927
0.77851
0.758887
0.740049
0.721947
0.704763
0.686412
0.540648
0.575604
0.623655
0.683796
0.753359
0.826445
0.894559
0.950063
0.989454
1.0131
1.02344
1.02334
1.017
1.00423
0.987633
0.96858
0.948012
0.926594
0.904799
0.882987
0.861386
0.840164
0.819433
0.79927
0.779723
0.760813
0.742562
0.724932
0.708169
0.690002
0.54114
0.577094
0.624692
0.681406
0.744014
0.8079
0.867353
0.917261
0.954858
0.979839
0.993467
0.997452
0.994966
0.987249
0.974596
0.958998
0.941405
0.922518
0.902858
0.882821
0.862695
0.842691
0.82296
0.803611
0.784723
0.766344
0.748516
0.731207
0.714758
0.696573
0.542783
0.582964
0.633833
0.69123
0.751332
0.810279
0.864143
0.909611
0.944797
0.96935
0.98403
0.990003
0.989294
0.984421
0.974234
0.960743
0.945017
0.927736
0.909429
0.890509
0.871291
0.852014
0.832856
0.813948
0.795393
0.777251
0.759591
0.742358
0.726052
0.707541
0.546318
0.595856
0.655249
0.718123
0.779899
0.837327
0.887928
0.929869
0.962221
0.984973
0.998805
1.00466
1.0042
0.999942
0.990516
0.977691
0.962577
0.945809
0.927902
0.909269
0.890233
0.871045
0.851895
0.832928
0.814257
0.795949
0.778101
0.760595
0.744203
0.72492
0.553189
0.620778
0.696579
0.770931
0.838551
0.897098
0.945755
0.984297
1.01298
1.0324
1.04347
1.04708
1.04537
1.03948
1.02879
1.01511
0.999189
0.981661
0.96302
0.943663
0.923908
0.904001
0.884134
0.86445
0.845075
0.826054
0.807546
0.789268
0.772507
0.751808
0.566612
0.668339
0.773297
0.866951
0.944301
1.00527
1.05177
1.08566
1.10878
1.12254
1.12837
1.12748
1.12225
1.11195
1.09812
1.08162
1.06316
1.0433
1.0225
1.00113
0.979484
0.957793
0.936243
0.914951
0.894069
0.873568
0.853761
0.833969
0.816494
0.793412
0.594963
0.763971
0.920092
1.04291
1.13212
1.19357
1.23455
1.25966
1.27316
1.2771
1.27424
1.26574
1.25221
1.23514
1.21529
1.19337
1.16999
1.14562
1.12068
1.09548
1.07028
1.04526
1.02062
0.996397
0.972831
0.94967
0.92765
0.905127
0.886517
0.859485
0.665131
0.979877
1.22559
1.38543
1.4807
1.53156
1.55665
1.56251
1.55794
1.54527
1.52588
1.50258
1.4761
1.44729
1.41685
1.38535
1.35323
1.32086
1.28856
1.25654
1.22503
1.19412
1.16404
1.13462
1.10641
1.07848
1.0528
1.02529
1.00492
0.971161
0.896904
1.57814
1.96091
2.13385
2.19764
2.19855
2.18108
2.14359
2.09924
2.05192
2.00255
1.95229
1.90167
1.85105
1.80092
1.75152
1.70304
1.6556
1.60938
1.56442
1.52094
1.47877
1.43839
1.39897
1.36212
1.32481
1.29257
1.25519
1.23133
1.18553
2.25136
3.88815
4.20706
4.16123
4.02691
3.85387
3.6945
3.54667
3.41013
3.28346
3.1648
3.05279
2.94657
2.84512
2.74928
2.65806
2.57095
2.48766
2.40808
2.33197
2.25954
2.19002
2.1247
2.06072
2.0031
1.9425
1.8945
1.83393
1.79657
1.72827
25.3732
18.8386
15.467
13.5569
12.3148
11.4271
10.7318
10.153
9.65012
9.19989
8.78909
8.40979
8.057
7.72747
7.4195
7.13071
6.85956
6.60483
6.3655
6.14047
5.92913
5.72975
5.54352
5.36501
5.20317
5.03806
4.90462
4.74144
4.63799
4.4537
0.543319
0.58648
0.647267
0.727744
0.826621
0.932461
1.02694
1.09723
1.13549
1.14884
1.14503
1.13106
1.10895
1.08289
1.05475
1.02576
0.996721
0.968078
0.940142
0.913128
0.887128
0.862184
0.838292
0.815439
0.793599
0.772732
0.752807
0.73374
0.715753
0.696456
0.543089
0.585449
0.644637
0.722017
0.815938
0.916046
1.0061
1.07419
1.11331
1.12886
1.12746
1.1164
1.0967
1.07274
1.04636
1.01886
0.991042
0.963424
0.936345
0.910043
0.884638
0.860186
0.836705
0.814196
0.792643
0.772016
0.752292
0.733394
0.715551
0.696368
0.542702
0.583706
0.640198
0.712434
0.79826
0.889485
0.97228
1.03579
1.07547
1.09433
1.09723
1.09023
1.075
1.05469
1.03142
1.00654
0.980908
0.955138
0.929608
0.904598
0.88027
0.856715
0.833984
0.812101
0.791073
0.770885
0.75153
0.732939
0.715361
0.696378
0.542285
0.581808
0.635282
0.701759
0.778642
0.859294
0.933379
0.992118
1.0318
1.05374
1.0612
1.05836
1.0485
1.03252
1.01303
0.991364
0.968486
0.945042
0.921472
0.898105
0.87515
0.852742
0.830971
0.809892
0.789538
0.769915
0.751032
0.732834
0.715598
0.696853
0.542009
0.580463
0.631437
0.692895
0.761831
0.832885
0.898631
0.952502
0.99131
1.0153
1.02651
1.02743
1.02218
1.01066
0.994887
0.976507
0.95646
0.935429
0.913908
0.892269
0.870763
0.849572
0.82882
0.808592
0.788949
0.76992
0.751533
0.733743
0.716873
0.698339
0.542083
0.580501
0.630329
0.688504
0.751663
0.815351
0.874225
0.923551
0.960754
0.985569
0.999197
1.00325
1.0009
0.993365
0.980782
0.96525
0.947695
0.928815
0.909132
0.889042
0.868841
0.848744
0.828907
0.809445
0.790439
0.771935
0.753985
0.736543
0.720003
0.701575
0.542784
0.582967
0.633839
0.691241
0.751351
0.810307
0.864179
0.909654
0.944845
0.9694
0.984079
0.99005