/*--------------------------------*- C++ -*----------------------------------*\
  =========                 |
  \\      /  F ield         | OpenFOAM: The Open Source CFD Toolbox
   \\    /   O peration     | Website:  https://openfoam.org
    \\  /    A nd           | Version:  10
     \\/     M anipulation  |
\*---------------------------------------------------------------------------*/
FoamFile
{
    format      ascii;
    class       volScalarField;
    location    "500";
    object      p;
}
// * * * * * * * * * * * * * * * * * * * * * * * * * * * * * * * * * * * * * //

dimensions      [0 2 -2 0 0 0 0];

internalField   nonuniform List<scalar> 
27507
(
122.539
192.085
293.647
508.776
-49.5528
-31.561
-19.3758
-11.5397
-6.49725
-3.32561
-1.38659
-0.23437
0.432848
0.906784
1.00899
0.848708
0.844626
0.792914
0.71858
0.644016
0.572157
0.499324
0.458485
0.323318
0.693484
106.321
159.018
260.471
437.915
-48.3583
-30.0411
-18.3364
-10.8865
-6.11959
-3.1205
-1.28083
-0.18351
0.450508
0.88018
0.997541
0.860283
0.843444
0.789586
0.714486
0.639203
0.566861
0.495102
0.448746
0.335404
0.640269
86.9335
110.812
193.531
316.767
-67.6708
-41.8819
-25.3874
-15.5108
-9.24333
-5.2059
-2.63393
-1.03382
-0.0674832
0.492181
0.84604
0.967403
0.856584
0.829996
0.773082
0.698708
0.62422
0.552687
0.482132
0.433653
0.326226
0.599546
69.6979
72.7471
113.221
184.962
206.555
9.83153
-114.863
-59.523
-33.2576
-19.8406
-12.0607
-7.1916
-4.04416
-2.01064
-0.722023
0.0699725
0.53394
0.78048
0.915628
0.839033
0.805326
0.745557
0.673217
0.60072
0.530952
0.462141
0.412346
0.309033
0.546197
53.5506
52.0029
59.8171
71.948
78.1929
14.8712
-61.2552
-58.0796
-35.9088
-21.6627
-13.1409
-7.93279
-4.6482
-2.52865
-1.15426
-0.27564
0.268245
0.571458
0.706433
0.846116
0.802978
0.766195
0.705471
0.636813
0.567875
0.501214
0.435152
0.384868
0.28628
0.481987
39.2808
38.1658
38.2482
38.9737
21.4991
0.342599
-25.5246
-25.8565
-18.5814
-11.8356
-7.35743
-4.40891
-2.45169
-1.16324
-0.326318
0.202478
0.520723
0.683594
0.780731
0.780951
0.753086
0.709832
0.652348
0.589393
0.525706
0.463667
0.401604
0.351905
0.259206
0.411083
27.9381
26.7868
25.2777
22.1985
12.436
-3.82033
-12.8666
-15.5471
-11.7243
-8.02442
-5.2634
-3.23373
-1.80629
-0.834722
-0.188191
0.228004
0.482693
0.619702
0.675927
0.700463
0.676617
0.636933
0.586745
0.531403
0.47473
0.418867
0.362193
0.314414
0.229153
0.337442
19.6859
18.4263
16.3182
12.3358
5.70388
-2.7616
-7.91498
-9.32886
-7.56222
-5.51443
-3.74907
-2.34728
-1.3155
-0.591616
-0.0985074
0.22482
0.425575
0.537577
0.589919
0.602574
0.583792
0.551397
0.509984
0.463732
0.415649
0.367458
0.317655
0.273386
0.197392
0.264842
14.0771
12.7386
10.4427
6.613
1.92208
-2.87672
-5.5706
-6.23891
-5.26208
-3.97901
-2.7853
-1.79385
-1.03431
-0.483552
-0.0986177
0.160418
0.32565
0.421863
0.47025
0.484792
0.475564
0.453247
0.422531
0.386994
0.349011
0.309958
0.268574
0.229625
0.164955
0.196589
10.5649
9.12864
6.76212
3.39158
0.0495764
-2.8118
-4.28219
-4.5477
-3.90652
-3.03918
-2.19897
-1.47694
-0.905773
-0.476708
-0.167387
0.047771
0.190842
0.279692
0.329513
0.351498
0.353629
0.343395
0.325067
0.301663
0.27513
0.246608
0.21521
0.183557
0.132487
0.135258
8.63479
7.08417
4.69688
1.85153
-0.591592
-2.41758
-3.30719
-3.42878
-3.01302
-2.4269
-1.83466
-1.30793
-0.875739
-0.538112
-0.284731
-0.100606
0.0288874
0.116108
0.171677
0.203928
0.219064
0.222559
0.217991
0.207911
0.194
0.177279
0.157394
0.135087
0.100085
0.0825246
7.8167
6.18072
3.88924
1.57293
-0.290376
-1.6223
-2.31844
-2.49131
-2.30223
-1.96026
-1.57835
-1.21586
-0.900186
-0.63976
-0.433109
-0.273526
-0.153072
-0.0643492
-0.000647196
0.0436529
0.0730277
0.0913892
0.101567
0.105719
0.105352
0.101483
0.0944794
0.083503
0.0671377
0.039034
7.68166
6.07448
4.07678
2.24366
0.718251
-0.450518
-1.19115
-1.54957
-1.62064
-1.52733
-1.35261
-1.14841
-0.94513
-0.759178
-0.597343
-0.460813
-0.348203
-0.257043
-0.184389
-0.127304
-0.0831293
-0.049336
-0.0238724
-0.0049617
0.00878401
0.0184539
0.0253582
0.0274206
0.0320826
0.00420066
7.8034
6.46906
4.95146
3.50578
2.15275
0.975443
0.0723338
-0.540461
-0.897802
-1.06739
-1.10946
-1.07065
-0.9857
-0.878586
-0.764763
-0.65359
-0.55038
-0.457816
-0.376851
-0.307361
-0.24863
-0.199511
-0.158774
-0.125081
-0.0971344
-0.0737874
-0.0525777
-0.0363004
-0.00918509
-0.0251767
7.73882
6.99989
5.99646
4.85085
3.62217
2.41759
1.35263
0.495351
-0.136179
-0.563783
-0.824001
-0.955779
-0.995342
-0.973079
-0.912534
-0.830986
-0.74054
-0.649266
-0.562194
-0.482167
-0.410512
-0.347525
-0.292808
-0.245592
-0.204617
-0.168794
-0.13466
-0.104216
-0.0566764
-0.0521993
7.61049
7.30842
6.67625
5.77348
4.69103
3.53031
2.40372
1.40593
0.590913
-0.0286148
-0.4661
-0.748215
-0.906831
-0.973415
-0.97548
-0.935233
-0.869653
-0.791127
-0.708243
-0.626615
-0.549641
-0.479142
-0.415748
-0.359436
-0.30931
-0.264475
-0.221242
-0.180454
-0.117596
-0.0891235
106.267
158.936
260.386
436.577
-48.1477
-29.9177
-18.2982
-10.8754
-6.11604
-3.11919
-1.28028
-0.183251
0.450632
0.880209
0.997599
0.860337
0.843477
0.789609
0.714503
0.639215
0.56687
0.495108
0.448749
0.335404
0.640256
94.6428
131.288
228.862
380.494
-46.2488
-28.221
-17.1931
-10.2154
-5.74541
-2.92095
-1.17911
-0.135224
0.468034
0.858743
0.984222
0.867392
0.839983
0.784364
0.709021
0.633379
0.560838
0.490092
0.439241
0.347702
0.584331
79.5915
92.9901
168.716
268.079
405.302
-70.3958
-39.4535
-23.8502
-14.5509
-8.67395
-4.88471
-2.46125
-0.945871
-0.0265973
0.506443
0.828597
0.95325
0.858518
0.824125
0.76617
0.691957
0.617491
0.546042
0.476585
0.424231
0.337616
0.545718
64.2116
64.8078
92.7625
159.663
178.185
53.1448
-116.677
-56.0328
-31.5745
-18.8332
-11.4225
-6.79687
-3.81173
-1.88083
-0.654002
0.102036
0.545336
0.770696
0.901583
0.834791
0.796426
0.736518
0.664737
0.592728
0.523402
0.455866
0.402874
0.318597
0.497212
49.6452
48.4621
53.3174
75.0234
62.6387
14.4719
-51.8911
-51.9515
-33.3301
-20.4541
-12.4832
-7.54484
-4.41639
-2.39461
-1.08171
-0.24059
0.28138
0.574987
0.700071
0.834608
0.793105
0.754356
0.694372
0.626632
0.558616
0.492743
0.428142
0.375383
0.293761
0.438653
36.5997
35.5285
34.6271
31.3216
18.4169
0.789432
-22.3143
-23.1763
-16.9589
-10.988
-6.86605
-4.11701
-2.28234
-1.07013
-0.28093
0.218766
0.519598
0.674858
0.771699
0.76717
0.738769
0.695753
0.639396
0.577715
0.515317
0.454367
0.393931
0.342495
0.264496
0.373919
26.1686
24.9929
23.0365
18.9949
10.5928
-3.7375
-11.6703
-14.0897
-10.8772
-7.51634
-4.93998
-3.03635
-1.6907
-0.771508
-0.159029
0.235677
0.477089
0.606571
0.658879
0.681977
0.6598
0.621092
0.57233
0.518571
0.463447
0.408912
0.35399
0.305196
0.232252
0.306674
18.5553
17.3368
15.1469
10.9829
4.90953
-2.75966
-7.38929
-8.66724
-7.13672
-5.23661
-3.57431
-2.24647
-1.26271
-0.569429
-0.0960153
0.215328
0.409222
0.517849
0.568421
0.582063
0.56515
0.534266
0.494617
0.45016
0.403792
0.357098
0.309113
0.264498
0.198421
0.240364
13.368
12.1088
9.85816
6.07678
1.65956
-2.76082
-5.27734
-5.89041
-5.02129
-3.8207
-2.68824
-1.7418
-1.01259
-0.481206
-0.108525
0.143305
0.304789
0.399665
0.448101
0.463722
0.456244
0.435704
0.406872
0.373188
0.336972
0.2995
0.259925
0.221216
0.164149
0.178007
10.1202
8.78197
6.50047
3.23391
0.0320623
-2.66149
-4.07275
-4.33261
-3.75516
-2.94011
-2.14042
-1.44885
-0.898543
-0.483079
-0.182143
0.0282223
0.169021
0.257351
0.307727
0.330915
0.334746
0.326294
0.309788
0.288167
0.263345
0.236396
0.206719
0.175786
0.130176
0.121952
8.34544
6.90243
4.61203
1.86559
-0.499983
-2.25715
-3.13552
-3.27377
-2.90273
-2.35469
-1.79278
-1.28902
-0.872781
-0.545815
-0.299066
-0.118741
0.00895059
0.0957644
0.15182
0.185126
0.201696
0.206745
0.203781
0.195293
0.182933
0.167686
0.149354
0.128123
0.0966809
0.0737219
7.61222
6.08708
3.8891
1.64736
-0.169592
-1.47303
-2.1738
-2.36802
-2.21214
-1.89954
-1.54165
-1.1976
-0.895274
-0.644044
-0.443376
-0.287437
-0.168929
-0.080941
-0.0171562
0.0277703
0.0581312
0.0776563
0.0890945
0.0945415
0.0954756
0.0928982
0.087207
0.0775267
0.0631245
0.0338895
7.51925
6.01993
4.09955
2.31637
0.822555
-0.330172
-1.07533
-1.45002
-1.54409
-1.47255
-1.31649
-1.12725
-0.93536
-0.757676
-0.601595
-0.468893
-0.358649
-0.268769
-0.196615
-0.13948
-0.0948693
-0.0603996
-0.0341023
-0.0142639
0.000465914
0.011182
0.0191048
0.0225437
0.0279293
0.00182966
7.66062
6.41714
4.95295
3.54178
2.21577
1.05509
0.154863
-0.464565
-0.834505
-1.018
-1.07323
-1.04588
-0.970289
-0.870478
-0.762145
-0.654955
-0.554513
-0.463766
-0.383891
-0.314945
-0.256351
-0.207079
-0.16598
-0.131777
-0.103217
-0.0791344
-0.0572473
-0.0396935
-0.0127227
-0.0254707
7.62756
6.92583
5.95494
4.83639
3.63313
2.44918
1.39691
0.544683
-0.0879566
-0.520352
-0.787242
-0.926312
-0.972908
-0.956932
-0.90172
-0.824512
-0.737467
-0.648761
-0.563551
-0.484806
-0.413968
-0.351432
-0.296883
-0.249614
-0.208429
-0.172224
-0.137732
-0.106391
-0.0592907
-0.0515438
7.51565
7.2199
6.60563
5.72181
4.65926
3.51836
2.40865
1.42309
0.615368
-0.000989113
-0.43839
-0.722515
-0.884342
-0.954635
-0.960431
-0.923645
-0.861098
-0.785115
-0.704282
-0.624247
-0.548461
-0.478804
-0.415965
-0.359969
-0.309968
-0.265077
-0.22172
-0.180516
-0.117923
-0.0878318
86.8883
110.68
193.379
315.686
-67.1831
-41.2653
-25.1789
-15.4359
-9.21627
-5.19563
-2.6297
-1.03192
-0.0665774
0.492608
0.846167
0.967555
0.856719
0.830075
0.773136
0.698747
0.624248
0.552707
0.482144
0.433657
0.326225
0.599505
79.5668
92.9052
168.343
266.962
372.109
-69.4503
-39.4922
-23.7957
-14.5146
-8.65796
-4.87808
-2.45839
-0.944561
-0.0259676
0.506735
0.828684
0.953333
0.858593
0.824169
0.7662
0.691979
0.617506
0.546052
0.476592
0.424232
0.337614
0.545694
68.7188
70.4853
122.97
187.742
228.537
-61.3074
-34.363
-20.5296
-12.4638
-7.42087
-4.16927
-2.07346
-0.74875
0.063125
0.535015
0.799212
0.920963
0.843424
0.804519
0.745562
0.673041
0.600228
0.530249
0.462345
0.408975
0.327222
0.509004
55.7861
54.4171
66.4246
111.697
94.0909
28.11
-86.133
-84.4948
-48.1498
-27.7626
-16.5814
-10.0156
-5.93288
-3.30508
-1.60147
-0.512792
0.162584
0.558913
0.742863
0.867906
0.812855
0.772344
0.712988
0.643517
0.573707
0.50631
0.440692
0.38727
0.307929
0.463105
43.3437
41.9766
43.1342
45.3825
49.0278
3.42761
-36.1818
-40.2709
-28.1251
-17.8867
-11.077
-6.72369
-3.93053
-2.11672
-0.93499
-0.174822
0.299123
0.566355
0.669996
0.799094
0.764766
0.725985
0.667995
0.603137
0.537832
0.474338
0.412034
0.359486
0.282879
0.407672
32.2388
31.0837
29.8401
27.0243
13.9848
-3.91396
-17.4402
-19.2231
-14.4546
-9.60198
-6.08778
-3.67051
-2.03329
-0.942247
-0.22766
0.227213
0.502354
0.645253
0.735391
0.729984
0.704792
0.663974
0.610622
0.55227
0.493004
0.434818
0.377026
0.32644
0.253504
0.346406
23.3237
22.2016
20.2823
16.116
8.16046
-2.60374
-10.1744
-11.8425
-9.46786
-6.7054
-4.4573
-2.75797
-1.5412
-0.702479
-0.140158
0.224323
0.448544
0.5697
0.619026
0.641094
0.622349
0.586999
0.541823
0.491715
0.440015
0.388533
0.336533
0.289179
0.221282
0.282797
16.753
15.6541
13.6104
9.60007
3.9172
-2.48298
-6.5648
-7.59981
-6.41399
-4.78825
-3.30482
-2.10019
-1.19622
-0.552518
-0.109797
0.183751
0.36838
0.473415
0.523677
0.539124
0.526026
0.498981
0.463229
0.422591
0.379792
0.336321
0.291436
0.248758
0.187623
0.220122
12.2492
11.134
9.07968
5.52765
1.41575
-2.49246
-4.78345
-5.3281
-4.61492
-3.56054
-2.53606
-1.66716
-0.990031
-0.491061
-0.138119
0.102712
0.259128
0.352879
0.402551
0.420893
0.417202
0.400577
0.375652
0.345744
0.313073
0.278851
0.24243
0.206027
0.15369
0.161263
9.43189
8.24716
6.16749
3.11216
0.113322
-2.35663
-3.69811
-3.9678
-3.49049
-2.77071
-2.04481
-1.4076
-0.894264
-0.502504
-0.21578
-0.013189
0.12432
0.212377
0.264349
0.290263
0.297555
0.292738
0.279867
0.261769
0.240292
0.216471
0.189864
0.161445
0.120239
0.108468
7.91256
6.62581
4.52428
1.95056
-0.286603
-1.94923
-2.81989
-2.99729
-2.70266
-2.22541
-1.7197
-1.25801
-0.871023
-0.563394
-0.328562
-0.154938
-0.0302629
0.0560568
0.113251
0.148714
0.168078
0.17617
0.176316
0.170902
0.161521
0.149127
0.133639
0.114958
0.0874723
0.0632005
7.31673
5.9443
3.91094
1.79993
0.0660861
-1.19544
-1.90707
-2.14249
-2.04515
-1.78706
-1.47389
-1.16417
-0.886749
-0.65269
-0.463224
-0.3141
-0.199221
-0.112606
-0.0486537
-0.0025402
0.0296692
0.0513995
0.0652229
0.0731244
0.0765204
0.0763829
0.0731737
0.0659011
0.0548822
0.0260122
7.2857
5.92567
4.13558
2.44627
1.01217
-0.112652
-0.864085
-1.26715
-1.40121
-1.36925
-1.24758
-1.08617
-0.915647
-0.753628
-0.608556
-0.48324
-0.377624
-0.290315
-0.219241
-0.162126
-0.116796
-0.0811244
-0.0533158
-0.0317741
-0.0152205
-0.00259738
0.00732662
0.0128621
0.0209357
-0.00370643
7.44805
6.3142
4.94093
3.59729
2.32179
1.19227
0.30072
-0.327576
-0.717467
-0.924691
-1.00319
-0.996599
-0.938382
-0.852436
-0.754754
-0.655463
-0.560651
-0.473717
-0.396235
-0.328597
-0.27049
-0.221105
-0.179457
-0.14439
-0.114732
-0.0893684
-0.0660562
-0.0468678
-0.0180176
-0.0288558
7.43118
6.78903
5.87398
4.80504
3.64701
2.49998
1.47167
0.6301
-0.00285953
-0.442616
-0.720612
-0.872196
-0.931124
-0.926355
-0.880786
-0.811525
-0.730791
-0.646916
-0.565259
-0.489003
-0.419787
-0.358184
-0.304027
-0.256726
-0.215179
-0.178338
-0.143021
-0.110607
-0.0624426
-0.052936
7.3326
7.05962
6.47685
5.6282
4.6032
3.49921
2.42091
1.45813
0.663915
0.0531908
-0.384435
-0.672698
-0.840883
-0.918431
-0.931479
-0.901398
-0.844716
-0.773643
-0.696766
-0.619803
-0.546309
-0.478276
-0.416504
-0.361113
-0.311343
-0.266362
-0.222691
-0.180929
-0.11802
-0.0869316
69.6778
72.4376
111.824
184.655
204.264
-151.991
-59.1486
-33.0817
-19.7333
-12.0013
-7.1619
-4.02995
-2.00383
-0.718689
0.0716338
0.534733
0.780783
0.915897
0.839274
0.805473
0.745659
0.673291
0.600773
0.530988
0.462164
0.412354
0.30903
0.546123
64.2015
64.6958
92.0065
158.897
176.926
47.0155
-122.628
-56.2493
-31.5928
-18.7931
-11.3857
-6.7753
-3.80066
-1.87533
-0.651253
0.103428
0.546001
0.770953
0.901776
0.834971
0.796537
0.736595
0.664793
0.592768
0.52343
0.455883
0.402879
0.318592
0.497156
55.7908
54.4123
66.2837
111.318
94.1295
24.9819
-85.8472
-84.6827
-48.1707
-27.7824
-16.577
-10.0039
-5.92399
-3.29986
-1.59867
-0.511319
0.163358
0.559293
0.743023
0.868018
0.812961
0.772412
0.713034
0.643551
0.573732
0.506327
0.440703
0.387274
0.307926
0.463074
45.7796
44.0291
45.0482
51.16
57.7831
4.74687
-49.8983
-54.4283
-36.7651
-22.5219
-13.6778
-8.26909
-4.87398
-2.68626
-1.2637
-0.348603
0.22393
0.562944
0.690217
0.813291
0.774998
0.734869
0.676942
0.611233
0.54503
0.480762
0.417907
0.36512
0.288696
0.420274
35.8069
34.3999
33.0401
31.7602
17.6043
0.987404
-22.7016
-28.1671
-21.7639
-14.6171
-9.29512
-5.70442
-3.34026
-1.78611
-0.766286
-0.105968
0.308793
0.546047
0.624623
0.742156
0.7198
0.683213
0.628471
0.568075
0.506963
0.447147
0.388121
0.336955
0.263891
0.368604
26.9623
25.815
24.0156
20.3968
10.6695
-3.19504
-12.8894
-14.581
-11.5533
-7.99675
-5.18704
-3.16404
-1.76198
-0.8135
-0.185449
0.218205
0.464851
0.595445
0.67915
0.67334
0.65382
0.616963
0.568209
0.514851
0.460257
0.406219
0.352177
0.30371
0.23496
0.311527
19.8255
18.8126
16.927
12.9455
6.04679
-2.26383
-8.12914
-9.45124
-7.86679
-5.74197
-3.88612
-2.43681
-1.37767
-0.636922
-0.134702
0.194317
0.399122
0.511874
0.559375
0.581265
0.567532
0.537308
0.497428
0.452654
0.40595
0.358959
0.311088
0.266519
0.203385
0.252314
14.5074
13.5702
11.7433
8.06892
3.0613
-2.16049
-5.528
-6.387
-5.5375
-4.22693
-2.96775
-1.92036
-1.11944
-0.5399
-0.13659
0.134374
0.307562
0.408588
0.459202
0.477339
0.46962
0.448161
0.418001
0.382836
0.345168
0.30637
0.265858
0.2265
0.170571
0.194051
10.8413
9.90936
8.12129
4.90278
1.23943
-2.1136
-4.11526
-4.62019
-4.08892
-3.21793
-2.33547
-1.5697
-0.962421
-0.507562
-0.181336
0.0445652
0.194125
0.28642
0.337885
0.359977
0.361539
0.350428
0.331007
0.306441
0.278809
0.249249
0.217275
0.184551
0.137676
0.139458
8.55773
7.56625
5.75417
2.98785
0.270372
-1.94023
-3.18295
-3.48149
-3.13148
-2.53738
-1.91159
-1.3489
-0.886818
-0.52843
-0.261875
-0.0704838
0.0621053
0.149493
0.203467
0.232997
0.244972
0.245167
0.237344
0.224179
0.207418
0.188044
0.165767
0.141177
0.105457
0.0906683
7.35617
6.26664
4.41537
2.07499
0.0144614
-1.53103
-2.3861
-2.61857
-2.4236
-2.04172
-1.61339
-1.21029
-0.864759
-0.584884
-0.367453
-0.203852
-0.0839575
0.00120555
0.0596257
0.0978188
0.120872
0.133082
0.137499
0.136348
0.131134
0.12277
0.111295
0.0963642
0.074128
0.049076
6.92957
5.75112
3.93748
2.00384
0.385364
-0.819401
-1.54087
-1.8301
-1.80962
-1.62537
-1.37397
-1.11236
-0.870364
-0.661095
-0.488085
-0.349199
-0.240007
-0.15582
-0.0920414
-0.0445868
-0.0100341
0.014614
0.0316642
0.0429364
0.0497522
0.0530354
0.05333
0.0495018
0.0432128
0.0152101
6.97199
5.7898
4.17552
2.61532
1.26497
0.180781
-0.57473
-1.01329
-1.19948
-1.22086
-1.14653
-1.02401
-0.883801
-0.744318
-0.615312
-0.500959
-0.402378
-0.319146
-0.249976
-0.193204
-0.147109
-0.109935
-0.0801361
-0.0562916
-0.037229
-0.0219561
-0.00920753
-0.000747357
0.0112466
-0.011512
7.15723
6.16361
4.91414
3.66431
2.45965
1.37534
0.499296
-0.138018
-0.552878
-0.791457
-0.901584
-0.923763
-0.890009
-0.823853
-0.741564
-0.653834
-0.56738
-0.486207
-0.412437
-0.346924
-0.289735
-0.240373
-0.198087
-0.161902
-0.130764
-0.103643
-0.0783238
-0.0569098
-0.025221
-0.0338534
7.15883
6.59474
5.75538
4.7551
3.66008
2.56526
1.57205
0.747311
0.115767
-0.332886
-0.625515
-0.794122
-0.87015
-0.881138
-0.84927
-0.791409
-0.719807
-0.642986
-0.566571
-0.494032
-0.427281
-0.367139
-0.313649
-0.26639
-0.224392
-0.186704
-0.150233
-0.116386
-0.066584
-0.0551755
7.07833
6.83589
6.29527
5.49515
4.52247
3.47003
2.43602
1.50576
0.731265
0.129149
-0.308235
-0.601908
-0.778778
-0.866412
-0.889651
-0.869059
-0.820727
-0.75668
-0.685494
-0.612973
-0.542809
-0.477149
-0.41695
-0.362465
-0.313053
-0.267973
-0.223864
-0.181363
-0.117946
-0.0858482
53.7834
52.6807
61.3362
87.8687
72.739
15.7841
-54.2796
-59.1512
-36.0672
-21.679
-13.1143
-7.90414
-4.6274
-2.51563
-1.14668
-0.271396
0.270563
0.572657
0.707006
0.846477
0.803312
0.766418
0.705629
0.636928
0.567958
0.501272
0.435189
0.384882
0.286277
0.481878
49.7574
48.6866
53.7596
77.0954
62.0495
14.353
-49.5331
-52.3123
-33.5028
-20.4854
-12.4719
-7.52525
-4.4004
-2.38407
-1.07541
-0.237014
0.283388
0.576047
0.700557
0.834903
0.793381
0.754545
0.694505
0.62673
0.558687
0.492793
0.428174
0.375395
0.293755
0.438566
43.4048
42.0864
43.3569
45.6375
49.2959
3.40029
-36.1605
-40.3832
-28.1858
-17.9052
-11.0748
-6.71447
-3.92157
-2.11025
-0.930894
-0.172402
0.300537
0.567116
0.67038
0.79932
0.764974
0.726131
0.668099
0.603213
0.537888
0.474377
0.41206
0.359496
0.282875
0.407609
35.836
34.4513
33.1332
31.8673
17.6943
0.99152
-22.7029
-28.1915
-21.783
-14.6241
-9.29517
-5.70146
-3.3369
-1.78344
-0.76449
-0.104861
0.309474
0.546421
0.624844
0.742277
0.719909
0.683293
0.628529
0.568118
0.506995
0.44717
0.388136
0.336961
0.26389
0.368572
28.3338
27.1506
25.282
21.798
11.5846
-0.359369
-13.494
-18.0631
-15.3784
-11.0636
-7.33361
-4.60348
-2.72577
-1.46244
-0.621843
-0.0713606
0.278416
0.484041
0.544575
0.669098
0.658249
0.626361
0.576623
0.522223
0.46675
0.411919
0.357259
0.308508
0.239584
0.32147
21.6743
20.699
18.8748
15.0184
7.44519
-2.72513
-9.06024
-10.5168
-8.78474
-6.34974
-4.23507
-2.6263
-1.47449
-0.679318
-0.145194
0.202225
0.417134
0.535072
0.610175
0.601755
0.587409
0.55606
0.513593
0.466746
0.418237
0.369641
0.320464
0.275198
0.211406
0.26947
16.2533
15.4288
13.756
10.0813
4.44939
-1.95824
-6.18056
-7.29107
-6.31113
-4.75984
-3.30008
-2.11404
-1.22275
-0.585994
-0.147371
0.144602
0.329676
0.43494
0.482892
0.505872
0.497918
0.474219
0.441141
0.403135
0.362782
0.321545
0.278934
0.23826
0.18083
0.215585
12.1769
11.4388
9.90366
6.63151
2.41606
-1.78736
-4.44428
-5.19119
-4.62897
-3.62549
-2.60538
-1.72927
-1.04303
-0.535474
-0.176208
0.0695389
0.230123
0.327057
0.378786
0.400448
0.399175
0.384594
0.361377
0.333009
0.301744
0.268826
0.233808
0.198887
0.149248
0.162669
9.36053
8.63406
7.15023
4.314
1.15069
-1.67161
-3.37292
-3.86087
-3.50833
-2.83091
-2.10667
-1.45856
-0.931905
-0.529108
-0.234464
-0.026409
0.114823
0.205214
0.258706
0.285196
0.292928
0.288426
0.275681
0.257638
0.236204
0.212435
0.18599
0.158037
0.117802
0.113249
7.62565
6.84542
5.32917
2.89146
0.49006
-1.4567
-2.59141
-2.92983
-2.71503
-2.26043
-1.75005
-1.27495
-0.874307
-0.556573
-0.315063
-0.137898
-0.0119257
0.0740645
0.129983
0.163513
0.18084
0.186906
0.185098
0.177873
0.166844
0.152935
0.135999
0.11627
0.0872469
0.0693131
6.75106
5.87694
4.30329
2.22884
0.371233
-1.04697
-1.8809
-2.17548
-2.08978
-1.81636
-1.47881
-1.14576
-0.850822
-0.60546
-0.410188
-0.259745
-0.14656
-0.0635797
-0.00430638
0.0366935
0.0638237
0.0807516
0.0901685
0.0940867
0.0938889
0.0904296
0.0838727
0.0736272
0.0578107
0.0321711
6.49596
5.53079
3.9642
2.23453
0.751489
-0.385991
-1.11304
-1.46019
-1.5246
-1.42482
-1.24609
-1.04224
-0.843621
-0.665294
-0.513285
-0.38783
-0.286456
-0.206011
-0.143103
-0.094552
-0.0575735
-0.0296923
-0.00894146
0.00628193
0.0171718
0.0245829
0.0291471
0.0295634
0.0290556
0.00232322
6.60899
5.62403
4.21019
2.80032
1.55001
0.516998
-0.237436
-0.712328
-0.955428
-1.03742
-1.01843
-0.942379
-0.839069
-0.727515
-0.618793
-0.518573
-0.429315
-0.351733
-0.285473
-0.229608
-0.182982
-0.144284
-0.112292
-0.0858059
-0.0637935
-0.0453544
-0.029186
-0.0171647
-0.000398016
-0.0207799
6.81335
5.97633
4.86946
3.72998
2.61039
1.58249
0.729249
0.0857792
-0.354844
-0.628193
-0.774748
-0.830897
-0.826605
-0.784689
-0.721548
-0.648417
-0.572691
-0.499063
-0.430287
-0.367771
-0.312039
-0.262975
-0.220122
-0.182727
-0.149891
-0.120701
-0.0929706
-0.0688781
-0.0337644
-0.0397353
6.83343
6.35679
5.6051
4.68605
3.66658
2.63545
1.68653
0.884728
0.257572
-0.199648
-0.508463
-0.696774
-0.793103
-0.82313
-0.808048
-0.764315
-0.704152
-0.636262
-0.566561
-0.498846
-0.435353
-0.377202
-0.324691
-0.277609
-0.235149
-0.19649
-0.158649
-0.1231
-0.0713538
-0.0577214
6.7726
6.56469
6.07325
5.33097
4.4212
3.43107
2.45115
1.56127
0.811871
0.22135
-0.214827
-0.514434
-0.701488
-0.801242
-0.836893
-0.827974
-0.789992
-0.734713
-0.670671
-0.603758
-0.537823
-0.475199
-0.417029
-0.363728
-0.314807
-0.269638
-0.225012
-0.181641
-0.11765
-0.0843987
39.429
38.5224
38.4443
36.5756
22.4453
0.351028
-25.1503
-26.0412
-18.6391
-11.8372
-7.34597
-4.39532
-2.44019
-1.15474
-0.320459
0.206342
0.52319
0.68514
0.78176
0.781612
0.753535
0.710137
0.652566
0.589553
0.525824
0.463752
0.40166
0.351928
0.259207
0.410944
36.688
35.6899
34.9079
31.3813
18.8894
0.842731
-22.2649
-23.2677
-16.9938
-10.9883
-6.85746
-4.10665
-2.27324
-1.06323
-0.276073
0.222024
0.521709
0.676189
0.772579
0.767742
0.739162
0.696024
0.63959
0.577859
0.515423
0.454444
0.393981
0.342517
0.264492
0.373804
32.2871
31.1518
29.9388
26.9325
14.1347
-3.9177
-17.425
-19.2568
-14.4666
-9.59979
-6.08159
-3.66366
-2.0272
-0.937482
-0.224191
0.229615
0.503958
0.646292
0.736112
0.730458
0.70512
0.664203
0.610789
0.552394
0.493096
0.434885
0.377071
0.32646
0.253502
0.346315
26.9866
25.847
24.0542
20.3601
10.7356
-3.18731
-12.8772
-14.5903
-11.5558
-7.99426
-5.18331
-3.16019
-1.75857
-0.810755
-0.183383
0.219686
0.465875
0.59613
0.679662
0.673678
0.654055
0.617129
0.568331
0.514943
0.460327
0.406271
0.352211
0.303728
0.234961
0.311465
21.6798
20.7046
18.8786
14.9977
7.4606
-2.72081
-9.05431
-10.5186
-8.7852
-6.34885
-4.23375
-2.62485
-1.47313
-0.678157
-0.14428
0.202904
0.417615
0.535401
0.610452
0.601943
0.587534
0.556148
0.513659
0.466796
0.418275
0.36967
0.320484
0.275208
0.211408
0.26944
16.9154
16.1311
14.5092
10.8288
4.90607
-2.14698
-6.4255
-7.53678
-6.49952
-4.85472
-3.32583
-2.10401
-1.1972
-0.554955
-0.115856
0.174028
0.355795
0.457271
0.510112
0.517106
0.507788
0.483003
0.448596
0.409595
0.368382
0.326377
0.283125
0.242091
0.184277
0.223082
12.9946
12.3605
10.9662
7.68275
3.13912
-1.65466
-4.6544
-5.52075
-4.922
-3.82643
-2.72459
-1.79098
-1.06732
-0.536476
-0.163759
0.089091
0.25277
0.349663
0.400654
0.418714
0.416468
0.400354
0.375298
0.345189
0.312272
0.277838
0.241483
0.205699
0.155019
0.17512
10.026
9.47839
8.23831
5.3941
1.91187
-1.40823
-3.47584
-4.12035
-3.77386
-3.038
-2.24504
-1.53879
-0.969069
-0.536752
-0.223709
-0.00480155
0.142182
0.234607
0.288015
0.312717
0.318349
0.311434
0.296086
0.275458
0.251537
0.225439
0.196841
0.167298
0.124999
0.128151
7.97952
7.44739
6.25492
3.81
1.12938
-1.21237
-2.64678
-3.12419
-2.927
-2.43234
-1.86628
-1.33983
-0.898581
-0.552337
-0.292506
-0.104492
0.0270167
0.114736
0.17002
0.20113
0.215363
0.21802
0.212648
0.201889
0.18745
0.170293
0.150219
0.127909
0.0953431
0.0844842
6.74485
6.16579
4.93355
2.82969
0.744807
-0.950503
-1.98252
-2.36142
-2.27436
-1.95887
-1.56866
-1.18722
-0.854132
-0.582054
-0.369458
-0.209229
-0.0917048
-0.00823979
0.0490489
0.0864452
0.109223
0.12149
0.126183
0.125481
0.120835
0.113089
0.102237
0.0881515
0.0667993
0.0459476
6.16612
5.49973
4.19824
2.39587
0.748113
-0.540478
-1.34915
-1.70346
-1.72477
-1.56241
-1.32126
-1.06453
-0.826146
-0.620308
-0.451158
-0.316789
-0.212381
-0.132961
-0.0736635
-0.0302687
0.000820672
0.0225871
0.0372965
0.0466954
0.0520125
0.0540252
0.053017
0.0481331
0.0396107
0.0137526
6.06128
5.30462
3.98584
2.46786
1.12901
0.0658581
-0.66001
-1.0613
-1.20935
-1.19655
-1.09522
-0.954523
-0.804477
-0.661643
-0.534358
-0.425209
-0.333797
-0.258617
-0.197594
-0.148563
-0.10947
-0.0784285
-0.0538677
-0.0344488
-0.019137
-0.00716958
0.00216874
0.00738282
0.0133853
-0.0116324
6.22994
5.44016
4.23129
2.98001
1.83864
0.865012
0.118952
-0.387615
-0.6858
-0.829571
-0.869045
-0.843468
-0.78118
-0.701365
-0.616209
-0.532797
-0.454963
-0.384616
-0.322407
-0.268228
-0.221553
-0.181581
-0.147457
-0.118247
-0.0930867
-0.0711943
-0.0512373
-0.0352379
-0.013157
-0.0307172
6.44419
5.76355
4.80448
3.78293
2.75666
1.79331
0.970192
0.32593
-0.137491
-0.445088
-0.629382
-0.721894
-0.749929
-0.735171
-0.693888
-0.637718
-0.574691
-0.510185
-0.447621
-0.389001
-0.335355
-0.286993
-0.24379
-0.205254
-0.170665
-0.139256
-0.108885
-0.0818356
-0.0429712
-0.0459158
6.47908
6.09016
5.43011
4.59846
3.66175
2.70175
1.80414
1.03099
0.412156
-0.0516338
-0.376298
-0.585174
-0.70341
-0.754447
-0.758204
-0.730554
-0.683579
-0.626111
-0.564346
-0.502418
-0.442911
-0.387269
-0.336078
-0.289362
-0.246507
-0.206841
-0.167521
-0.130113
-0.0763014
-0.0602106
6.43704
6.26405
5.82454
5.145
4.30428
3.38309
2.46374
1.61988
0.89993
0.323834
-0.109747
-0.415078
-0.612951
-0.72599
-0.775493
-0.779756
-0.753573
-0.708369
-0.652593
-0.592215
-0.531243
-0.472208
-0.416457
-0.364591
-0.316292
-0.271064
-0.225886
-0.181561
-0.117031
-0.0825142
27.9657
26.8011
24.9974
21.265
12.7177
-3.84997
-12.8385
-15.6245
-11.7454
-8.02224
-5.25495
-3.22331
-1.797
-0.827534
-0.183033
0.231541
0.485053
0.621261
0.676986
0.701196
0.67713
0.6373
0.587015
0.531606
0.474884
0.41898
0.36227
0.314449
0.22916
0.337285
26.1948
25.0224
23.0337
18.8698
10.7532
-3.73913
-11.6439
-14.1245
-10.8877
-7.51302
-4.93269
-3.02784
-1.68299
-0.765422
-0.154576
0.238783
0.479189
0.607968
0.659831
0.68264
0.660267
0.62143
0.57258
0.51876
0.463591
0.409019
0.354063
0.305231
0.232254
0.306541
23.34
22.2166
20.2847
16.0061
8.22757
-2.60599
-10.1599
-11.8582
-9.4711
-6.70138
-4.45138
-2.75161
-1.53547
-0.69788
-0.136713
0.226786
0.450251
0.570864
0.619838
0.641672
0.622761
0.5873
0.542048
0.491887
0.440146
0.388631
0.3366
0.289213
0.221286
0.282687
19.8335
18.8199
16.9295
12.8943
6.08416
-2.26126
-8.12063
-9.45744
-7.86749
-5.73885
-3.88201
-2.43257
-1.37388
-0.633834
-0.132336
0.196053
0.40036
0.51274
0.559995
0.581721
0.567862
0.537552
0.497614
0.452797
0.40606
0.359042
0.311147
0.266551
0.203392
0.252232
16.2541
15.4281
13.7529
10.0575
4.46171
-1.95712
-6.17709
-7.29333
-6.31128
-4.75824
-3.29789
-2.11171
-1.22061
-0.584207
-0.145967
0.145658
0.330448
0.435496
0.483306
0.506185
0.498147
0.474391
0.441274
0.403238
0.362863
0.321607
0.278978
0.238286
0.180838
0.215534
12.9934
12.3587
10.9638
7.6753
3.14155
-1.6548
-4.65384
-5.52155
-4.9221
-3.8259
-2.72377
-1.79006
-1.06644
-0.535727
-0.163159
0.0895535
0.253118
0.349922
0.40085
0.418864
0.416583
0.400443
0.375368
0.345244
0.312316
0.277872
0.241508
0.205714
0.155025
0.175098
10.2829
9.79792
8.64667
5.80534
2.21222
-1.3022
-3.50825
-4.21593
-3.87279
-3.11454
-2.29615
-1.56893
-0.983869
-0.54102
-0.221431
0.00129942
0.15031
0.243393
0.296813
0.320675
0.326076
0.318552
0.302419
0.281003
0.256313
0.229494
0.200238
0.17024
0.127366
0.133356
8.22288
7.82657
6.82638
4.39971
1.56525
-1.02158
-2.64912
-3.22308
-3.04548
-2.53252
-1.93714
-1.3828
-0.919162
-0.556822
-0.286558
-0.09222
0.0427719
0.131874
0.187253
0.217499
0.230635
0.231879
0.224949
0.212622
0.196652
0.178036
0.156575
0.133193
0.0991909
0.0926331
6.81413
6.44049
5.4862
3.40832
1.16602
-0.760363
-1.97548
-2.44891
-2.38453
-2.05387
-1.63514
-1.22483
-0.867532
-0.577948
-0.353722
-0.186489
-0.0653649
0.0192403
0.0760738
0.111931
0.132677
0.142635
0.144904
0.141784
0.134781
0.124757
0.11165
0.0956483
0.0715959
0.0550051
5.99278
5.58301
4.59173
2.79987
1.01161
-0.454787
-1.39445
-1.80963
-1.83663
-1.65131
-1.37785
-1.08986
-0.826144
-0.602125
-0.420893
-0.279652
-0.17222
-0.0925031
-0.0346894
0.00608986
0.0340104
0.0523673
0.0636205
0.0696291
0.0716612
0.0704697
0.0661793
0.0582871
0.0453217
0.0221269
5.65336
5.16694
4.10636
2.56119
1.1161
-0.046329
-0.82577
-1.2314
-1.34999
-1.29349
-1.1477
-0.968716
-0.789526
-0.626243
-0.486092
-0.370241
-0.276587
-0.202249
-0.144046
-0.0990086
-0.064463
-0.0381373
-0.0182287
-0.00329604
0.00770921
0.0154679
0.0203735
0.0212852
0.0206296
-0.00489531
5.6621
5.09043
3.99911
2.68503
1.48967
0.504538
-0.212094
-0.658413
-0.882285
-0.952426
-0.927772
-0.851579
-0.75249
-0.647925
-0.548037
-0.457543
-0.378049
-0.309692
-0.251747
-0.203099
-0.162499
-0.128681
-0.100511
-0.0769483
-0.0571447
-0.0404506
-0.0260796
-0.0157461
-0.0028204
-0.0256278
5.86344
5.24999
4.23439
3.13897
2.10863
1.19979
0.470081
-0.0599823
-0.406655
-0.608476
-0.70527
-0.73082
-0.711213
-0.665259
-0.605849
-0.541262
-0.476603
-0.41494
-0.357935
-0.30632
-0.260244
-0.219441
-0.183459
-0.151656
-0.123362
-0.0979355
-0.0740299
-0.0538359
-0.0261981
-0.0405361
6.07483
5.53722
4.72003
3.81609
2.88577
1.99172
1.20509
0.566599
0.0858484
-0.252454