/*--------------------------------*- C++ -*----------------------------------*\
  =========                 |
  \\      /  F ield         | OpenFOAM: The Open Source CFD Toolbox
   \\    /   O peration     | Website:  https://openfoam.org
    \\  /    A nd           | Version:  10
     \\/     M anipulation  |
\*---------------------------------------------------------------------------*/
FoamFile
{
    format      ascii;
    class       surfaceScalarField;
    location    "500";
    object      phi;
}
// * * * * * * * * * * * * * * * * * * * * * * * * * * * * * * * * * * * * * //

dimensions      [0 3 -1 0 0 0 0];

internalField   nonuniform List<scalar> 
81522
(
525.511
8.66134
8.65384
113.535
32.0202
31.9818
115.4
115.439
117.135
94.0557
9.70291
9.77646
-14.8846
3.26392
3.27187
2.04066
2.10886
2.10942
2.08987
1.14516
-0.669294
-0.767316
0.291451
-6.41209
-1.00482
-1.05552
8.47242
-13.9009
15.4311
-0.756912
-0.773292
-19.258
20.3104
-0.523337
-0.529076
-22.93
23.6521
-0.35995
-0.362215
-25.4643
25.9694
-0.252032
-0.253051
-27.2523
27.6146
-0.18092
-0.181438
-28.5466
28.8133
-0.133185
-0.133482
-29.507
29.7078
-0.1003
-0.100488
-30.2382
122.185
-0.592158
-0.593091
-30.2498
-30.2498
-30.2614
500.442
-3.41246
-3.41704
-123.261
-123.404
-123.404
-123.544
506.012
-2.78315
-2.78665
510.581
-2.28308
-2.28586
514.371
-1.89408
-1.89636
517.549
-1.5879
-1.58982
520.238
-1.34381
-1.34547
522.533
-1.1464
-1.14785
524.503
-0.984522
-0.985809
526.192
-0.843907
-0.845054
527.663
-0.735064
-0.736087
-0.577911
-0.578813
530.005
14.3329
7.51228
118.767
50.4796
26.8574
122.375
120.192
123.353
-17.8715
104.803
23.5819
8.25349
-11.2736
-19.7676
13.0645
2.77031
3.87599
3.73611
3.67771
3.91659
-2.74628
3.57404
-4.93659
-0.909375
5.0182
-11.2109
3.84094
-0.951063
-4.60745
12.9285
2.75287
-17.1772
18.3438
-3.24536
-0.674137
1.90501
-21.2686
22.0832
-2.25444
-0.465174
1.32813
-24.1489
24.7306
-1.58503
-0.324769
0.943674
-26.2194
26.6427
-1.1356
-0.231373
0.685893
-27.7362
28.0501
-0.831174
-0.168632
0.509917
-28.8684
29.1055
-0.621363
-0.125671
0.386924
-29.7289
29.9112
-0.473669
-0.0955805
-30.4052
1.15457
122.837
-1.6725
-0.565165
-30.4608
-30.4161
-30.4714
502.683
-6.34843
-3.24149
-123.862
-124.26
-123.996
-124.387
507.772
-5.21422
-2.65819
511.992
-4.31174
-2.19128
515.522
-3.59834
-1.82552
518.502
-3.03182
-1.53591
521.039
-2.57698
-1.30382
523.215
-2.20683
-1.11532
525.091
-1.90056
-0.960124
526.71
-1.63743
-0.825165
528.109
-1.41357
-0.721284
-1.1638
-0.56456
535.717
16.4875
5.97411
126.161
54.391
19.9356
129.16
126.884
129.665
-26.2503
119.696
26.8791
5.83616
-14.857
-27.2568
25.6802
14.6792
1.75446
-0.818509
0.53543
0.416477
-0.133421
-16.736
8.27261
-8.46282
-0.971818
17.898
5.78131
-20.3871
-0.671488
21.0684
-5.79113
4.04118
-22.8686
23.4046
-4.09987
-0.477336
2.89333
-24.8493
25.2814
-2.98046
-0.344881
2.10761
-26.4455
26.7929
-2.20228
-0.252777
1.5594
-27.727
28.0053
-1.64967
-0.187986
1.17233
-28.7527
28.9752
-1.25293
-0.141947
0.895423
-29.5733
29.7516
-0.964933
-0.10882
0.694391
-30.232
30.3757
-0.753509
-0.0846544
-30.7805
2.11271
124.189
-2.48637
-0.507819
-30.8643
-30.7898
-30.8732
506.708
-8.49756
-2.93295
-125.071
-125.631
-125.187
-125.737
510.984
-7.06144
-2.42909
514.597
-5.9035
-2.02084
517.668
-4.97223
-1.69663
520.294
-4.22182
-1.43689
522.557
-3.6123
-1.22674
524.516
-3.11141
-1.05469
526.22
-2.69307
-0.912051
527.703
-2.33263
-0.787496
528.999
-2.01837
-0.691227
-1.68784
-0.543861
540.795
16.2569
4.56819
530.574
50.3562
14.2556
129.484
97.8766
28.7374
-26.3607
-35.7378
-25.5441
-34.4016
132.954
130.195
133.372
-53.1727
130.865
44.5135
7.2774
-22.9755
-33.8876
35.8779
19.2319
1.75345
-3.86663
0.740365
3.63861
-0.517886
-2.49097
2.86824
-2.35415
1.97625
11.3825
-28.2332
27.6576
-9.98025
-0.826723
7.24491
-26.9413
-0.547674
26.8721
-6.62795
5.16454
-26.9431
27.03
-4.85532
-0.396083
3.8778
-27.3989
27.5453
-3.72295
-0.301181
2.96992
-28.0253
28.1913
-2.90299
-0.232924
2.2967
-28.6924
28.8563
-2.27928
-0.181346
1.78824
-29.333
29.4844
-1.79768
-0.14196
1.40258
-29.9156
30.0502
-1.4253
-0.111852
1.10904
-30.4287
30.5456
-1.13716
-0.0887916
0.884966
-30.872
30.9724
-0.91432
-0.071068
-31.2715
2.7648
125.939
-2.97904
-0.435796
-31.3659
-31.2789
-31.3729
511.827
-9.79127
-2.55278
-126.637
-127.263
-126.732
-127.348
515.156
-8.24926
-2.14106
518.041
-6.98544
-1.80265
520.547
-5.94908
-1.52913
522.731
-5.09926
-1.30648
524.642
-4.399
-1.12406
526.32
-3.81663
-0.973111
527.799
-3.32515
-0.846878
529.101
-2.89897
-0.735926
530.255
-2.52248
-0.649713
-2.132
-0.516334
544.462
14.6295
3.36035
541.746
43.22
9.85172
546.246
75.7379
17.639
142.355
109.301
6.91813
-37.0428
-43.496
-35.6149
-41.739
141.821
142.315
141.795
7.99186
5.66555
5.9764
-49.1483
148.501
38.064
4.93891
-11.0447
-39.3757
40.5573
0.622006
9.24089
-0.817628
-42.445
41.7134
0.0630964
1.48616
6.08773
-37.5417
140.742
-13.7764
-2.15865
6.37425
5.96049
6.27889
-37.5717
-37.2029
-37.1922
6.03899
-133.897
129.324
-16.6422
-2.26778
5.96419
5.77235
5.70766
4.81477
-126.253
124.367
-14.9076
-1.92844
4.58667
4.77068
4.55022
3.86403
-123.152
122.463
-12.7966
-1.60067
3.70555
3.83687
3.68051
3.15716
-122.092
121.991
-10.9132
-1.33351
3.0349
3.13825
3.01784
2.59168
-122.067
122.285
-9.25029
-1.11155
2.49297
2.57825
2.48071
2.12515
-122.61
123.005
-7.79186
-0.923672
2.04423
2.11558
2.03543
1.73941
-123.46
123.939
-6.52726
-0.76508
1.67364
1.7326
1.66732
1.42321
-124.447
124.951
-5.44899
-0.632701
1.37012
1.41834
1.36556
1.16599
-125.464
125.958
-4.5419
-0.523345
1.12319
1.1625
1.1199
0.957716
-126.448
126.912
-3.78782
-0.43391
0.923899
0.955198
0.92149
3.1033
-127.371
127.806
-3.17572
-0.36205
517.391
-10.3218
-2.15611
-128.328
-128.952
-128.403
-129.021
519.801
-8.82611
-1.83396
521.954
-7.57309
-1.56525
523.877
-6.52767
-1.34363
525.591
-5.6538
-1.15981
527.121
-4.92219
-1.007
528.489
-4.3058
-0.879012
529.715
-3.77993
-0.770954
530.812
-3.32046
-0.675279
531.801
-2.91073
-0.600601
-2.48423
-0.483435
546.669
12.3644
2.4094
547.388
35.641
6.85985
552.707
58.9775
11.4417
567.674
78.5966
15.7373
147.608
81.0507
15.9612
-30.1407
-28.6995
-29.2865
-27.893
145.902
147.4
145.771
-23.5065
149.914
19.3088
1.89118
-6.5987
-150.398
148.877
7.48837
0.631483
557.32
-6.85081
-2.90697
7.26493
9.59487
6.73412
9.07857
-145.757
-144.493
-145.605
-144.38
538.97
-21.4718
-5.35837
11.5371
11.4892
11.0547
11.0993
527.186
-27.1724
-5.92422
11.6436
11.113
11.2956
10.8286
520.207
-28.324
-5.7663
10.6713
10.0952
10.42
9.88195
516.399
-27.3327
-5.33416
9.47701
8.93726
9.28857
8.77246
514.701
-25.3675
-4.8059
8.28239
7.7888
8.13681
7.66347
514.404
-22.9699
-4.2584
7.15325
6.71269
7.04238
6.61683
515.034
-20.4633
-3.72806
6.12189
5.73721
6.03792
5.6643
516.243
-18.018
-3.23619
5.20602
4.87589
5.14265
4.82057
517.782
-15.7353
-2.79342
4.4094
4.13033
4.36162
4.08834
519.479
-13.6703
-2.40459
3.72737
3.49563
3.69134
3.46395
521.235
-11.8398
-2.06742
3.15353
2.95359
3.12454
2.91898
522.934
-10.2413
-1.77967
524.537
-8.89159
-1.53697
526.03
-7.73545
-1.33109
527.409
-6.74964
-1.15708
528.675
-5.9091
-1.00988
529.832
-5.1939
-0.885585
530.89
-4.58336
-0.780177
531.857
-4.05701
-0.690345
532.741
-3.59382
-0.610263
533.555
-3.17784
-0.547571
-2.7394
-0.447532
547.821
9.97831
1.69292
550.109
28.5993
4.75414
555.517
45.9482
7.62086
565.209
59.0286
9.87629
575.777
60.5633
9.91931
579.413
47.0455
7.26983
-16.3231
-12.8696
-16.0501
-12.7088
573.492
25.5953
3.49332
-7.58456
-3.96969
-7.55943
-4.05422
561.407
5.26553
-0.0313375
549.817
-7.86104
-2.02072
540.738
-15.1285
-2.96468
534.305
-18.5782
-3.31264
530.024
-19.7169
-3.33467
527.362
-19.5196
-3.18636
525.89
-18.5441
-2.95408
525.28
-17.1693
-2.68389
525.28
-15.6129
-2.40446
525.696
-14.0183
-2.13304
526.382
-12.4771
-1.87999
527.229
-11.0364
-1.64992
528.163
-9.72944
-1.44613
529.115
-8.57444
-1.2689
530.054
-7.5599
-1.11458
530.961
-6.67533
-0.981199
531.824
-5.90631
-0.866191
532.64
-5.24159
-0.767559
533.406
-4.66701
-0.682887
534.126
-4.16708
-0.610121
534.802
-3.72475
-0.544927
535.444
-3.32591
-0.49385
-2.89758
-0.410863
548.299
7.75446
1.17193
551.114
22.5011
3.28322
556.019
35.8868
5.15626
563.026
45.5244
6.49684
569.845
47.1648
6.57969
572.604
39.0844
5.20217
569.807
25.2947
3.09771
563.084
10.9897
0.998487
555.541
0.1365
-0.454054
548.839
-7.08314
-1.34325
543.483
-11.3988
-1.82366
539.469
-13.6675
-2.03525
536.581
-14.5514
-2.08002
534.619
-14.5571
-2.02503
533.373
-14.012
-1.91171
532.675
-13.1467
-1.76773
532.385
-12.1174
-1.61113
532.391
-11.03
-1.45366
532.608
-9.95036
-1.30223
532.966
-8.92507
-1.16239
533.408
-7.98085
-1.03591
533.898
-7.12749
-0.922766
534.412
-6.36592
-0.822725
534.931
-5.69086
-0.734763
535.446
-5.09842
-0.658152
535.951
-4.58045
-0.591625
536.445
-4.12651
-0.534063
536.926
-3.72391
-0.482399
537.404
-3.3614
-0.442014
-2.9623
-0.375268
548.369
5.8425
0.804669
551.196
17.398
2.27604
555.48
28.0387
3.56351
560.89
35.6633
4.45148
565.89
37.5813
4.58316
568.315
32.8095
3.84991
567.304
23.6741
2.63223
563.547
13.4244
1.32223
558.704
4.69644
0.283286
553.884
-1.81261
-0.451134
549.646
-6.23734
-0.923419
546.159
-8.98402
-1.1961
543.419
-10.4812
-1.32991
541.337
-11.1058
-1.36988
539.81
-11.1362
-1.34853
538.734
-10.7822
-1.28908
538.019
-10.1942
-1.20771
537.584
-9.47924
-1.11566
537.364
-8.71023
-1.02036
537.305
-7.93917
-0.927211
537.362
-7.19821
-0.839289
537.5
-6.50753
-0.758216
537.695
-5.87605
-0.684722
537.928
-5.3053
-0.61876
538.187
-4.79704
-0.560414
538.464
-4.34823
-0.509208
538.756
-3.95315
-0.464688
539.06
-3.60362
-0.424859
539.385
-3.29239
-0.393921
-2.93878
-0.34214
548.243
4.24565
0.552299
550.82
13.2249
1.59611
554.519
21.8155
2.52387
558.929
28.0851
3.16829
562.994
30.1831
3.3329
565.374
27.4794
2.95034
565.458
21.368
2.22134
563.555
13.9524
1.37582
560.54
7.08002
0.630551
557.182
1.49828
0.0479177
553.946
-2.63104
-0.370318
551.06
-5.45015
-0.64792
548.615
-7.21982
-0.816496
546.608
-8.19369
-0.904974
545.002
-8.59393
-0.936793
543.747
-8.59713
-0.92998
542.788
-8.33754
-0.897944
542.075
-7.915
-0.850528
541.56
-7.40126
-0.794732
541.206
-6.84886
-0.735726
540.976
-6.29162
-0.676851
540.843
-5.75425
-0.620403
540.785
-5.25025
-0.567684
540.785
-4.78565
-0.519255
540.83
-4.36613
-0.475707
540.911
-3.99263
-0.437103
541.025
-3.66367
-0.403443
541.17
-3.37543
-0.37365
541.355
-3.12645
-0.350766
-2.83227
-0.312437
548.002
2.96415
0.38238
550.233
9.85164
1.14216
553.433
16.7733
1.84215
557.21
21.963
2.34592
560.787
24.0792
2.52635
563.245
22.6822
2.33944
564.091
18.6273
1.89429
563.418
13.293
1.33229
561.719
7.9873
0.792158
559.481
3.40188
0.334327
557.09
-0.216827
-0.0228492
554.786
-2.86352
-0.2827
552.689
-4.66285
-0.45987
550.85
-5.78337
-0.571557
549.279
-6.3893
-0.633825
547.963
-6.62107
-0.659949
546.877
-6.59149
-0.660545
545.994
-6.38795
-0.64385
545.285
-6.07591
-0.616079
544.723
-5.70454
-0.581996
544.282
-5.30656
-0.544859
543.943
-4.90743
-0.507184
543.686
-4.52256
-0.470573
543.496
-4.16043
-0.435949
543.364
-3.82903
-0.404206
543.279
-3.53215
-0.375774
543.238
-3.27194
-0.350945
543.241
-3.04858
-0.329442
543.296
-2.86886
-0.313187
-2.64656
-0.286733
547.706
1.96083
0.268617
549.597
7.11839
0.842405
552.399
12.5736
1.39796
555.773
16.7736
1.81549
559.11
18.7404
2.00217
561.702
18.1627
1.92674
563.122
15.5557
1.65204
563.325
11.8213
1.26906
562.578
7.8635
0.870565
561.221
4.25042
0.5079
559.544
1.25491
0.205455
557.762
-1.05035
-0.0308494
556.014
-2.70974
-0.20544
554.382
-3.82321
-0.327605
552.904
-4.50411
-0.407617
551.596
-4.85787
-0.454924
550.456
-4.97389
-0.477696
549.475
-4.92414
-0.48266
548.638
-4.76443
-0.475177
547.931
-4.53766
-0.459531
547.337
-4.27325
-0.438798
546.839
-3.99484
-0.41551
546.426
-3.71761
-0.39141
546.084
-3.45088
-0.367633
545.804
-3.20349
-0.345254
545.577
-2.98094
-0.324954
545.401
-2.78835
-0.307183
545.274
-2.62904
-0.292387
545.207
-2.52105
-0.281373
-2.38205
-0.265285
547.414
1.19257
0.190751
548.989
4.89718
0.646987
551.488
8.96072
1.11312
554.623
12.1614
1.4778
557.861
13.8349
1.66698
560.613
13.7525
1.65811
562.483
12.1965
1.48972
563.356
9.72608
1.22251
563.354
6.94357
0.921219
562.699
4.27713
0.628757
561.615
1.9688
0.369714
560.293
0.116432
0.154893
558.876
-1.27756
-0.014278
557.458
-2.26377
-0.141592
556.1
-2.9136
-0.233053
554.838
-3.30023
-0.295144
553.687
-3.48931
-0.334023
552.654
-3.53579
-0.355121
551.736
-3.48361
-0.363021
550.927
-3.3673
-0.361547
550.219
-3.21117
-0.35359
549.601
-3.03512
-0.341621
549.063
-2.85248
-0.327447
548.597
-2.67205
-0.312339
548.193
-2.50219
-0.297476
547.845
-2.34899
-0.28373
547.547
-2.21964
-0.271589
547.3
-2.11901
-0.262164
547.112
-2.07872
-0.255086
-2.03266
-0.248055
547.168
0.61294
0.132211
548.495
3.04819
0.522362
550.792
5.72301
0.939842
553.785
7.89413
1.27478
556.999
9.15322
1.46799
559.918
9.33008
1.50327
562.167
8.5428
1.40497
563.579
7.09913
1.21492
564.182
5.36006
0.980435
564.111
3.61017
0.737459
563.538
2.03187
0.509708
562.628
0.71639
0.310409
561.518
-0.312232
0.144805
560.313
-1.07178
0.0129061
559.088
-1.6004
-0.0881643
557.893
-1.94233
-0.162585
556.758
-2.14001
-0.214905
555.702
-2.23049
-0.249494
554.733
-2.24429
-0.270284
553.853
-2.20593
-0.280716
553.058
-2.13312
-0.283526
552.345
-2.04054
-0.281121
551.706
-1.93832
-0.275348
551.135
-1.83355
-0.267587
550.625
-1.73293
-0.259082
550.169
-1.64186
-0.250872
549.761
-1.56835
-0.243384
549.396
-1.51638
-0.238354
549.08
-1.52859
-0.234007
-1.57741
-0.234888
547.014
0.20626
0.0766972
548.162
1.44566
0.455193
550.299
2.73351
0.852691
553.173
3.84333
1.1759
556.384
4.56117
1.38099
559.479
4.78207
1.45373
562.086
4.52808
1.40754
563.993
3.91991
1.27214
565.151
3.11804
1.08364
565.625
2.26264
0.873367
565.538
1.45452
0.664616
565.029
0.752853
0.47248
564.23
0.181952
0.305074
563.251
-0.25778
0.165325
562.177
-0.579248
0.0527667
561.071
-0.801319
-0.0349739
559.976
-0.944099
-0.101177
558.921
-1.02617
-0.149385
557.923
-1.06342
-0.183024
556.991
-1.06896
-0.205243
556.129
-1.05252
-0.21868
555.337
-1.02227
-0.225705
554.611
-0.983959
-0.228208
553.947
-0.941863
-0.227687
553.339
-0.899899
-0.225424
552.781
-0.861382
-0.22262
552.265
-0.832605
-0.219623
551.783
-0.815478
-0.218608
551.318
-0.847247
-0.216224
-0.960872
-0.223946
546.951
0.0347482
547.971
0.425261
549.879
0.825823
552.559
1.16289
555.718
1.40294
558.971
1.52837
561.957
1.54175
564.416
1.46158
566.219
1.31528
567.35
1.13071
567.873
0.931588
567.89
0.735679
567.518
0.554711
566.865
0.3951
566.026
0.259353
565.077
0.147361
564.076
0.0573644
563.063
-0.0132472
562.067
-0.067391
561.106
-0.107994
560.191
-0.137704
559.328
-0.158954
558.518
-0.17379
557.76
-0.183916
557.051
-0.190779
556.385
-0.195787
555.752
-0.199346
555.14
-0.203999
554.498
-0.205025
-0.217057
530.001
7.55795
14.2989
118.729
27.0518
50.3951
120.196
122.309
123.301
-17.886
104.736
8.32259
23.5573
-11.2694
-19.7584
2.80533
13.1492
3.90164
3.64924
3.70288
3.81953
-2.83475
3.997
-0.847388
-5.45846
5.1436
-11.3054
3.99861
-0.923933
-4.77205
13.0028
2.80295
-17.2096
18.3683
-0.66328
-3.29834
1.92343
-21.2792
22.0913
-0.460896
-2.27467
1.33585
-24.1528
24.7336
-0.322933
-1.59379
0.947292
-26.221
26.644
-0.2305
-1.13981
0.687784
-27.737
28.0507
-0.16817
-0.833411
0.511019
-28.8688
29.1059
-0.125401
-0.622681
0.38763
-29.7292
29.9115
-0.0954073
-0.474521
-30.4053
1.15636
122.837
-0.564296
-1.67503
-30.4163
-30.461
-30.4716
502.685
-3.23717
-6.35663
-123.863
-123.997
-124.261
-124.387
507.774
-2.65483
-5.22061
511.994
-2.18859
-4.31688
515.523
-1.8233
-3.6026
518.503
-1.53403
-3.03544
521.04
-1.3022
-2.58013
523.215
-1.1139
-2.20961
525.091
-0.958863
-1.90304
526.71
-0.824041
-1.63965
528.11
-0.720283
-1.41556
-0.563677
-1.16556
533.361
12.7248
12.6708
122.575
43.6936
43.5053
125.2
125.147
127.149
-15.1618
-15.2852
112.618
20.2825
20.1222
-9.2116
-9.62654
-23.4937
20.3558
11.151
10.8252
-8.12369
4.07063
4.00961
-5.19287
-5.19591
10.4323
-15.4236
3.4981
3.42687
-4.06143
-4.12936
16.6894
2.43948
2.40692
-19.8016
20.6675
-2.83916
-2.87315
1.7003
1.68638
-22.8852
23.5181
-2.00214
-2.01746
1.20441
1.19812
-25.16
25.633
-1.43418
-1.44134
0.869771
0.86666
-26.8677
27.2254
-1.04529
-1.04892
0.641092
0.639404
-28.1644
28.4381
-0.776067
-0.778068
0.482059
0.481053
-29.1603
29.372
-0.586827
-0.588032
0.36917
0.368517
-29.9342
30.1002
-0.451453
-0.452242
-30.5611
1.10231
1.10064
123.445
-1.59641
-1.59878
-30.6135
-30.6136
-30.6644
504.774
-6.03626
-6.04403
-124.423
-124.798
-124.799
-125.152
509.432
-4.98205
-4.98818
513.334
-4.1387
-4.14367
516.624
-3.46737
-3.47152
519.42
-2.93114
-2.93468
521.815
-2.4986
-2.50168
523.878
-2.14518
-2.14791
525.665
-1.85167
-1.8541
527.217
-1.59918
-1.60136
528.542
-1.38261
-1.38455
-1.14381
-1.14553
537.797
14.9564
10.3193
128.106
48.2304
33.5036
130.483
129.559
131.544
-22.8634
-10.8653
123.361
23.7328
14.7401
-6.26938
-13.043
51.7499
32.5669
27.6685
29.1863
28.3532
29.8635
-118.619
-15.4886
-12.2246
-14.4054
-7.18461
-5.55165
-6.60286
-3.73549
-7.55395
-6.76492
7.28454
7.0578
3.71555
1.10986
1.78679
-2.32334
3.08729
-2.60283
-1.0578
-20.4674
7.34924
3.46918
-7.36528
-4.05894
21.0732
2.42496
5.022
-22.5841
-2.8553
23.0385
-5.04607
1.74496
3.57055
-24.3147
24.7129
-3.64354
-2.07011
1.27745
2.60346
-25.821
26.163
-2.69551
-1.52739
0.94796
1.92826
-27.1074
27.3957
-2.02297
-1.1415
0.712546
1.44728
-28.1849
28.424
-1.53563
-0.863258
0.542801
1.10103
-29.075
29.2713
-1.17926
-0.660928
0.419116
0.849124
-29.8047
29.9653
-0.916448
-0.512426
0.327872
0.663717
-30.4017
30.5334
-0.720988
-0.402294
-30.9133
0.991703
2.01931
124.711
-2.38106
-1.4416
-30.9928
-30.9582
-31.0355
508.542
-8.10511
-5.48989
-125.557
-126.088
-125.884
-126.387
512.468
-6.7638
-4.57264
515.816
-5.67725
-3.83005
518.682
-4.79818
-3.23202
521.149
-4.08613
-2.74913
523.285
-3.50537
-2.35614
525.144
-3.02642
-2.03266
526.768
-2.62511
-1.76232
528.189
-2.27881
-1.52874
529.417
-1.97483
-1.3273
-1.65929
-1.10424
542.039
14.9306
8.02954
534.344
45.5815
24.5992
131.675
86.2463
47.2587
-23.3639
-31.1878
-21.4352
-28.0691
134.22
132.917
134.821
-45.2793
-13.3876
133.74
38.5792
18.0216
-5.7154
-18.6715
-34.824
36.4543
16.1035
6.65304
-1.42656
-8.14793
-12.5648
15.4529
5.47116
1.21744
0.840407
4.11203
-9.11417
8.1523
-3.76304
-0.227338
9.56968
-29.8271
2.95176
29.1099
-8.38516
-3.41903
1.97286
6.30472
-28.0579
-2.32483
27.9139
-5.80877
1.45568
4.59652
-27.805
27.8402
-4.35383
-1.73361
1.1211
3.51034
-28.0678
28.1723
-3.39141
-1.34456
0.875676
2.72748
-28.5372
28.6691
-2.6788
-1.05627
0.687787
2.13478
-29.0798
29.2175
-2.1264
-0.833841
0.542511
1.67941
-29.6255
29.7572
-1.693
-0.6606
0.430201
1.32873
-30.1371
30.257
-1.3531
-0.52579
0.343348
1.05833
-30.5977
30.7038
-1.08688
-0.420948
0.275998
0.849716
-31.0024
31.095
-0.878914
-0.339331
-31.3776
0.851948
2.65218
126.363
-2.86365
-1.24195
-31.4679
-31.4136
-31.5018
513.367
-9.37077
-4.79964
-127.037
-127.635
-127.306
-127.876
516.431
-7.92295
-4.0462
519.109
-6.73186
-3.42622
521.451
-5.75013
-2.91929
523.504
-4.94154
-2.50391
525.31
-4.2729
-2.16176
526.903
-3.71512
-1.87733
528.311
-3.2431
-1.63769
529.559
-2.83324
-1.42937
530.652
-2.46893
-1.24873
-2.09634
-1.04683
545.047
13.5817
6.01395
543.062
39.8615
17.5569
136.399
68.9053
30.6369
137.052
136.606
137.348
-32.3525
138.248
27.6336
9.78771
-42.7136
-9.23614
147.614
33.9493
12.3849
-141.998
-9.57242
-2.17998
-38.8838
39.9258
2.52587
8.18435
-1.38049
-0.294879
-41.0677
40.6065
0.392729
1.74378
4.88319
3.7429
-148.86
141.18
-10.8608
-4.59142
5.21763
4.47032
4.81802
5.19392
-135.039
4.19245
130.798
-14.2892
-5.5211
4.91134
5.00282
4.74996
4.29474
3.6306
-127.848
125.959
-13.2829
-4.94124
4.11271
4.12127
3.95402
3.52099
3.04453
-124.687
123.918
-11.641
-4.21939
3.38325
3.40404
3.27663
2.91367
2.55302
-123.457
123.258
-10.0548
-3.57895
2.80601
2.83073
2.72942
2.41555
2.13882
-123.237
123.359
-8.60593
-3.02419
2.32692
2.35546
2.27134
1.99764
1.78501
-123.592
123.898
-7.30826
-2.54251
1.92386
1.95407
1.88358
1.64725
1.48414
-124.271
124.673
-6.16589
-2.12748
1.58648
1.61574
1.55734
1.35654
1.23142
-125.111
125.551
-5.17951
-1.77498
1.30692
1.33373
1.2858
1.11759
1.02151
-126.006
126.447
-4.34085
-1.47946
1.0772
1.10102
1.06184
0.92248
0.848776
-126.892
127.313
-3.63762
-1.23453
0.890343
0.910365
0.879069
2.98801
-127.736
0.707538
128.138
-3.06317
-1.03495
518.648
-9.90959
-4.06974
-128.646
-129.248
-128.861
-129.44
520.87
-8.49938
-3.47936
522.869
-7.31309
-2.9837
524.666
-6.31941
-2.57098
526.277
-5.48579
-2.22684
527.722
-4.78575
-1.93935
529.02
-4.19442
-1.69763
530.187
-3.68879
-1.49214
531.238
-3.24656
-1.31233
532.174
-2.8499
-1.15563
-2.44308
-0.978138
546.941
11.5767
4.35998
548.019
33.2587
12.3852
553.633
54.4494
20.2834
566.984
71.4076
26.7469
-23.6597
-26.0045
-21.992
-24.1117
146.919
74.1237
27.6558
-27.3665
-25.9509
-25.3821
-24.0094
145.419
146.388
145.148
-21.4073
-3.63061
149.028
17.9489
4.98017
-6.78735
-1.25389
-149.395
148.16
7.43839
1.83813
558.348
-4.15158
-3.57
5.63427
7.97327
4.56202
6.77489
-145.352
-144.216
-144.92
-143.99
541.452
-18.1922
-8.39959
9.97454
10.1307
8.87019
9.15401
530.183
-24.1491
-9.92563
10.4395
10.0612
9.5924
9.32642
523.246
-25.7282
-9.96503
9.75646
9.27888
9.11343
8.71497
519.281
-25.1663
-9.4123
8.77176
8.29831
8.2776
7.86194
517.337
-23.5725
-8.61136
7.73118
7.29066
7.3474
6.95212
516.764
-21.5065
-7.72372
6.7259
6.32574
6.42928
6.06469
517.112
-19.2793
-6.83168
5.79274
5.43848
5.56498
5.23834
518.054
-17.0674
-5.98316
4.95365
4.64613
4.77958
4.49321
519.351
-14.9764
-5.20492
4.21629
3.95385
4.08351
3.8371
520.832
-13.0661
-4.51033
3.57989
3.3607
3.47849
3.27124
522.407
-11.3619
-3.89765
3.04198
2.84913
2.96097
2.76501
523.949
-9.85739
-3.37312
525.42
-8.58101
-2.92633
526.803
-7.4832
-2.54411
528.089
-6.54369
-2.21882
529.276
-5.74005
-1.94231
530.367
-5.05445
-1.70783
531.368
-4.4679
-1.50833
532.288
-3.96129
-1.33723
533.133
-3.51522
-1.18663
533.902
-3.11235
-1.0549
-2.6943
-0.903145
547.936
9.3984
3.08319
550.369
26.9154
8.6646
555.723
43.0016
13.7145
564.728
54.8178
17.4617
574.532
56.4796
17.7588
577.901
44.3662
13.2461
-15.3058
-12.1586
-14.6153
-11.6318
572.697
24.9364
6.85388
-7.4439
-4.08517
-7.34668
-4.21727
561.71
6.18612
0.618434
550.912
-6.30035
-3.11494
542.255
-13.4508
-5.00604
535.986
-16.9862
-5.78548
531.723
-18.2885
-5.94962
529.003
-18.2688
-5.77006
527.429
-17.4775
-5.40894
526.694
-16.2697
-4.9587
526.561
-14.8624
-4.47642
526.846
-13.3972
-3.99757
527.41
-11.966
-3.54406
528.143
-10.6183
-3.12648
528.977
-9.38529
-2.75185
529.84
-8.29011
-2.42292
530.702
-7.32441
-2.13524
531.542
-6.47954
-1.88515
532.347
-5.74291
-1.66851
533.112
-5.10472
-1.48201
533.834
-4.55209
-1.32148
534.516
-4.07054
-1.18271
535.161
-3.64443
-1.06007
535.765
-3.2581
-0.952684
-2.84999
-0.826448
548.329
7.34135
2.14637
551.172
21.3095
6.04532
555.989
33.913
9.42867
562.647
42.8756
11.7803
569.122
44.5463
12.0386
571.779
37.2402
9.67065
569.307
24.5278
5.9783
563.104
11.1902
2.19721
556.035
0.839484
-0.524571
549.629
-6.15415
-2.23364
544.436
-10.4195
-3.19766
540.496
-12.7248
-3.65904
537.628
-13.6833
-3.79723
535.643
-13.7813
-3.73654
534.351
-13.3326
-3.55669
533.592
-12.5604
-3.31106
533.236
-11.6168
-3.03503
533.174
-10.6059
-2.75205
533.323
-9.59311
-2.4765
533.618
-8.62456
-2.21826
534.003
-7.72761
-1.98283
534.441
-6.91381
-1.77128
534.907
-6.18521
-1.58322
535.384
-5.53766
-1.41717
535.861
-4.96821
-1.27205
536.333
-4.46961
-1.14576
536.797
-4.03215
-1.03589
537.253
-3.64436
-0.938717
537.7
-3.2933
-0.853925
-2.91354
-0.751865
548.368
5.54801
1.48336
551.164
16.5641
4.22567
555.371
26.6734
6.59596
560.585
33.8986
8.21374
565.404
35.8
8.51065
567.792
31.4535
7.2491
566.939
22.9448
5.06838
563.467
13.3041
2.67972
558.901
4.96409
0.724456
554.293
-1.32063
-0.676573
550.203
-5.65175
-1.60124
546.796
-8.36185
-2.15197
544.099
-9.87961
-2.43632
542.031
-10.5444
-2.53849
540.496
-10.6268
-2.51967
539.399
-10.3287
-2.42414
538.654
-9.79597
-2.28312
538.184
-9.13306
-2.11846
537.927
-8.41146
-1.94496
537.831
-7.68238
-1.77314
537.851
-6.97769
-1.60946
537.955
-6.31818
-1.45764
538.117
-5.71332
-1.31929
538.321
-5.16527
-1.19461
538.553
-4.67636
-1.08398
538.805
-4.24414
-0.986718
539.073
-3.86338
-0.901733
539.357
-3.52689
-0.826838
539.658
-3.22575
-0.762197
-2.89002
-0.682294
548.214
4.04608
1.02344
550.76
12.6325
2.98105
554.393
20.8492
4.71551
558.685
26.8528
5.92157
562.646
28.9151
6.25754
565.003
26.4485
5.59747
565.174
20.7179
4.27749
563.433
13.7019
2.71911
560.592
7.11944
1.31674
557.389
1.72635
0.203642
554.256
-2.28225
-0.607328
551.454
-5.05282
-1.15434
549.06
-6.80819
-1.49389
547.081
-7.7919
-1.67921
545.488
-8.21605
-1.75421
544.233
-8.25052
-1.75306
543.266
-8.02517
-1.70146
542.538
-7.63699
-1.61841
542.005
-7.15607
-1.5176
541.63
-6.63387
-1.40917
541.379
-6.10369
-1.29971
541.225
-5.59023
-1.19402
541.146
-5.10715
-1.09477
541.125
-4.66078
-1.00321
541.151
-4.25708
-0.920621
541.214
-3.89736
-0.847299
541.311
-3.58043
-0.783096
541.441
-3.3033
-0.727081
541.607
-3.06282
-0.679824
-2.78461
-0.619721
547.978
2.82985
0.710716
550.178
9.42945
2.1457
553.317
16.0838
3.46818
557.013
21.0784
4.42468
560.52
23.1509
4.78292
562.959
21.8861
4.46305
563.852
18.0683
3.6506
563.281
12.9976
2.60763
561.69
7.91455
1.58807
559.554
3.48346
0.713193
557.256
-0.031097
0.0239565
555.022
-2.61744
-0.483201
552.975
-4.38819
-0.833353
551.171
-5.50163
-1.05789
549.622
-6.11431
-1.18675
548.318
-6.36121
-1.24505
547.237
-6.3513
-1.25305
546.352
-6.16937
-1.22661
545.637
-5.87922
-1.17777
545.066
-5.52886
-1.11582
544.615
-5.15042
-1.04715
544.263
-4.76905
-0.976799
543.993
-4.40008
-0.907981
543.791
-4.05212
-0.842592
543.646
-3.73322
-0.782452
543.549
-3.4474
-0.728502
543.495
-3.19693
-0.681248
543.486
-2.98268
-0.640778
543.528
-2.80977
-0.608053
-2.60109
-0.565321
547.686
1.87292
0.499885
549.54
6.82617
1.59127
552.294
12.0798
2.64849
555.606
16.1344
3.44729
558.889
18.0562
3.81371
561.461
17.55
3.69118
562.902
15.0909
3.18773
563.163
11.5326
2.47304
562.497
7.73318
1.71837
561.218
4.24491
1.02541
559.611
1.3386
0.442624
557.888
-0.908826
-0.0164553
556.188
-2.53493
-0.358505
554.592
-3.63294
-0.600161
553.141
-4.31064
-0.760454
551.851
-4.66924
-0.857215
550.723
-4.79504
-0.906002
549.749
-4.7578
-0.919721
548.915
-4.61182
-0.908737
548.207
-4.39895
-0.881363
547.609
-4.14799
-0.843601
547.107
-3.88217
-0.800455
546.688
-3.6165
-0.755364
546.339
-3.3603
-0.710605
546.051
-3.12237
-0.668317
545.817
-2.90831
-0.629882
545.632
-2.72324
-0.596223
545.496
-2.57101
-0.568235
545.421
-2.46813
-0.54726
-2.34
-0.519582
547.4
1.13724
0.354641
548.948
4.69734
1.22832
551.405
8.61451
2.12138
554.487
11.7081
2.82153
557.679
13.3409
3.19098
560.405
13.2939
3.18778
562.279
11.8274
2.87881
563.185
9.47152
2.3779
563.234
6.79961
1.80574
562.636
4.22626
1.24605
561.608
1.98901
0.746973
560.337
0.186465
0.330509
558.963
-1.1756
0.000578377
557.581
-2.14364
-0.249235
556.253
-2.78531
-0.429959
555.013
-3.17069
-0.55378
553.879
-3.36311
-0.632402
552.858
-3.41576
-0.676228
551.949
-3.37132
-0.694098
551.145
-3.26345
-0.693424
550.439
-3.11589
-0.679825
549.822
-2.94816
-0.658147
549.283
-2.77338
-0.631931
548.815
-2.60026
-0.603694
548.408
-2.4371
-0.575768
548.055
-2.29
-0.549841
547.754
-2.16609
-0.527068
547.5
-2.07053
-0.50894
547.308
-2.03384
-0.497088
-1.99548
-0.482385
547.159
0.581867
0.244421
548.463
2.9194
0.996596
550.722
5.49515
1.80038
553.667
7.59286
2.4449
556.835
8.81908
2.82188
559.723
9.00954
2.89955
561.963
8.27155
2.72006
563.39
6.89702
2.36237
564.025
5.2295
1.91552
563.996
3.54356
1.44932
563.468
2.01695
1.00997
562.601
0.739953
0.623696
561.531
-0.262141
0.301403
560.361
-1.00489
0.043709
559.167
-1.52412
-0.154542
557.997
-1.86203
-0.301179
556.883
-2.0594
-0.404853
555.843
-2.15201
-0.473951
554.887
-2.16944
-0.516061
554.017
-2.13554
-0.53785
553.229
-2.06756
-0.544632
552.521
-1.97988
-0.541108
551.886
-1.88243
-0.530883
551.317
-1.7822
-0.516665
550.807
-1.68583
-0.500912
550.351
-1.59865
-0.485557
549.942
-1.52869
-0.471857
549.574
-1.47978
-0.461655
549.258
-1.49456
-0.456568
-1.54717
-0.45304
547.007
0.193198
0.143141
548.135
1.3789
0.868191
550.235
2.61392
1.63385
553.064
3.68231
2.25751
556.228
4.378
2.6583
559.284
4.59924
2.8076
561.871
4.36438
2.72775
563.778
3.78794
2.47451
564.953
3.02212
2.11602
565.455
2.20153
1.71285
565.403
1.42362
1.31028
564.931
0.746076
0.937963
564.168
0.19317
0.612236
563.224
-0.233975
0.339334
562.181
-0.547278
0.118779
561.102
-0.764586
-0.0537365
560.031
-0.905091
-0.184388
558.996
-0.986632
-0.279938
558.015
-1.02453
-0.346988
557.097
-1.03145
-0.391644
556.247
-1.01683
-0.419032
555.464
-0.988617
-0.433781
554.745
-0.95242
-0.439594
554.087
-0.912423
-0.439393
553.484
-0.872489
-0.43576
552.929
-0.83581
-0.430857
552.416
-0.808906
-0.426026
551.934
-0.7926
-0.423267
551.473
-0.826892
-0.423207
-0.938388
-0.429531
546.944
0.0676011
547.947
0.800591
549.822
1.56494
552.456
2.2111
555.563
2.67366
558.77
2.92057
561.722
2.95474
564.161
2.80971
565.962
2.53654
567.106
2.18819
567.651
1.80989
567.697
1.43578
567.356
1.08869
566.736
0.78136
565.929
0.519032
565.01
0.30184
564.036
0.126682
563.047
-0.0112605
562.073
-0.117462
561.131
-0.197467
560.232
-0.256337
559.383
-0.298733
558.586
-0.328615
557.839
-0.349259
557.139
-0.363543
556.482
-0.373985
555.855
-0.382051
555.249
-0.390613
554.614
-0.396686
-0.413025
535.662
6.00887
16.4586
126.093
20.0106
54.3687
126.842
129.111
129.631
-26.2132
119.567
5.86139
26.878
-14.6614
-27.1644
25.5466
1.72271
14.5564
0.619871
1.31126
0.226099
-2.15719
-17.2487
8.65896
-0.950122
-8.7281
18.2679
5.88375
-20.5416
-0.6613
21.1865
-5.86728
4.08151
-22.9246
23.4482
-0.472556
-4.13254
2.91182
-24.8714
25.299
-0.342596
-2.9969
2.11684
-26.4549
26.8007
-0.25162
-2.21098
1.56431
-27.7315
28.009
-0.187365
-1.6545
1.17515
-28.755
28.9772
-0.141588
-1.25578
0.89717
-29.5746
29.7528
-0.108597
-0.966743
0.695562
-30.2328
30.3765
-0.0845064
-0.754741
-30.781
2.1158
124.191
-0.507055
-2.48985
-30.7903
-30.8649
-30.8738
506.714
-2.929
-8.5078
-125.073
-125.189
-125.633
-125.739
510.989
-2.42595
-7.06965
514.6
-2.0183
-5.91026
517.67
-1.69451
-4.97795
520.297