/*--------------------------------*- C++ -*----------------------------------*\
  =========                 |
  \\      /  F ield         | OpenFOAM: The Open Source CFD Toolbox
   \\    /   O peration     | Website:  https://openfoam.org
    \\  /    A nd           | Version:  10
     \\/     M anipulation  |
\*---------------------------------------------------------------------------*/
FoamFile
{
    format      ascii;
    class       volVectorField;
    location    "500";
    object      U;
}
// * * * * * * * * * * * * * * * * * * * * * * * * * * * * * * * * * * * * * //

dimensions      [0 1 -1 0 0 0 0];

internalField   nonuniform List<vector> 
27507
(
(13.8851 0.0864133 0.0861199)
(13.063 0.333817 0.334672)
(10.9972 0.373691 0.371341)
(4.968 0.522087 0.493823)
(-0.233246 -0.0977323 -0.111924)
(3.0622 -0.153834 -0.160547)
(6.02156 -0.117168 -0.119601)
(8.11385 -0.0810984 -0.081985)
(9.54682 -0.0557088 -0.0560615)
(10.5381 -0.0389532 -0.0391115)
(11.2397 -0.027929 -0.0280094)
(11.7493 -0.02054 -0.0205859)
(12.1286 -0.0154594 -0.0154884)
(12.4541 -0.0229534 -0.0229899)
(12.7312 -0.033932 -0.0339783)
(12.8903 -0.0275363 -0.0275715)
(13.018 -0.0225074 -0.0225351)
(13.1237 -0.0186146 -0.0186371)
(13.2121 -0.0155701 -0.0155891)
(13.2865 -0.0131496 -0.0131659)
(13.3498 -0.0111964 -0.0112107)
(13.4038 -0.00960266 -0.00961525)
(13.451 -0.00821697 -0.00822817)
(13.4886 -0.00716192 -0.00717188)
(13.5334 -0.00555529 -0.00556406)
(13.8905 0.229205 0.0752861)
(13.2543 0.846733 0.279889)
(11.6562 1.60507 0.315938)
(7.19512 3.72484 0.425173)
(1.58801 -1.27394 -0.138345)
(4.96187 -1.29992 -0.14604)
(7.28584 -0.928919 -0.104422)
(8.88563 -0.643981 -0.0720607)
(10.0154 -0.45051 -0.0502394)
(10.8295 -0.321208 -0.0357463)
(11.4274 -0.234132 -0.0260249)
(11.8747 -0.174448 -0.0193774)
(12.2155 -0.132629 -0.0147294)
(12.5258 -0.109712 -0.0218903)
(12.7958 -0.0970595 -0.0321935)
(12.9405 -0.0792399 -0.0262714)
(13.0579 -0.0651218 -0.021585)
(13.156 -0.0540718 -0.0179287)
(13.2386 -0.0453759 -0.0150519)
(13.3087 -0.0384311 -0.0127526)
(13.3686 -0.0328047 -0.0108889)
(13.42 -0.0281844 -0.00936147)
(13.4649 -0.0242005 -0.00803376)
(13.5012 -0.0209427 -0.00701883)
(13.5441 -0.0168675 -0.00544083)
(13.9144 0.304843 0.0602469)
(13.5012 1.03378 0.204454)
(12.6283 2.05531 0.222958)
(10.7387 4.52286 0.269664)
(0.179992 0.947404 -0.0975275)
(7.08196 -2.55393 -0.151851)
(8.4914 -1.77969 -0.103789)
(9.47963 -1.25651 -0.0739208)
(10.2691 -0.906464 -0.0533602)
(10.9052 -0.664777 -0.0390607)
(11.4156 -0.49479 -0.0290201)
(11.8239 -0.373782 -0.0218944)
(12.1507 -0.286594 -0.0167726)
(12.4132 -0.222984 -0.0130422)
(12.674 -0.178143 -0.0196573)
(12.9112 -0.146692 -0.0290683)
(13.0315 -0.121002 -0.0239704)
(13.1313 -0.100461 -0.0198826)
(13.2161 -0.0841025 -0.0166481)
(13.2885 -0.0710588 -0.0140719)
(13.3506 -0.0605356 -0.0119923)
(13.4043 -0.0519362 -0.0102928)
(13.4508 -0.0448069 -0.00888995)
(13.4919 -0.0386761 -0.00766534)
(13.5253 -0.0333849 -0.00672526)
(13.5651 -0.0277203 -0.00523977)
(13.9535 0.319111 0.0460415)
(13.7103 1.02487 0.144914)
(13.4551 2.08109 0.300389)
(13.1489 3.70571 0.280809)
(13.9637 6.36367 0.26105)
(4.96077 2.92759 0.109488)
(8.83246 -2.62709 -0.250403)
(11.2902 -3.18578 -0.132726)
(10.9907 -2.10375 -0.0847093)
(11.0487 -1.53689 -0.0612505)
(11.2514 -1.16893 -0.0465762)
(11.513 -0.903863 -0.0359877)
(11.7862 -0.704351 -0.0279934)
(12.0462 -0.552013 -0.0218987)
(12.2815 -0.435304 -0.0172438)
(12.488 -0.345717 -0.013681)
(12.6661 -0.276916 -0.0109466)
(12.8645 -0.22209 -0.016857)
(13.0565 -0.179607 -0.0252363)
(13.1487 -0.150154 -0.0210895)
(13.2275 -0.126232 -0.0177103)
(13.2961 -0.106811 -0.0149882)
(13.3558 -0.0910618 -0.012784)
(13.408 -0.0781795 -0.0109812)
(13.4537 -0.0675308 -0.00949182)
(13.4938 -0.0586112 -0.0082514)
(13.5297 -0.0509006 -0.00716124)
(13.5592 -0.0441236 -0.00631991)
(13.595 -0.0371026 -0.00497437)
(13.9815 0.29841 0.0337797)
(13.882 0.902967 0.0996707)
(13.841 1.64788 0.180786)
(14.1098 2.4666 0.270889)
(14.7485 3.2687 0.195769)
(16.3385 3.0457 0.0926715)
(17.0778 0.402356 0.00652394)
(14.7786 -1.3678 -0.0846879)
(13.41 -1.48807 -0.0892562)
(12.8086 -1.27512 -0.0756117)
(12.5653 -1.06661 -0.0626024)
(12.4913 -0.892837 -0.0520327)
(12.5073 -0.745899 -0.0432806)
(12.5735 -0.620483 -0.035901)
(12.6658 -0.514166 -0.0296914)
(12.7688 -0.425164 -0.0245205)
(12.8729 -0.351476 -0.0202588)
(12.9723 -0.290908 -0.01678)
(13.0658 -0.242197 -0.0139693)
(13.2127 -0.196428 -0.0212587)
(13.2779 -0.16665 -0.018032)
(13.336 -0.142011 -0.0153553)
(13.388 -0.121615 -0.0131548)
(13.4344 -0.104758 -0.0113385)
(13.4758 -0.0907491 -0.00983059)
(13.5128 -0.0790171 -0.00856915)
(13.5458 -0.0690815 -0.00750833)
(13.5758 -0.0604271 -0.00656887)
(13.6008 -0.0527366 -0.00584051)
(13.6319 -0.0447867 -0.0046584)
(13.9972 0.259374 0.0241604)
(13.9855 0.75349 0.0689708)
(14.0308 1.27495 0.11583)
(14.2671 1.74094 0.158625)
(14.7671 1.80798 0.163395)
(15.253 1.60288 0.0756788)
(15.3441 0.553887 0.0240505)
(14.5446 -0.289852 -0.0324733)
(13.9872 -0.572758 -0.0569941)
(13.6089 -0.659662 -0.0617971)
(13.3816 -0.652466 -0.0593352)
(13.2523 -0.607413 -0.0543727)
(13.1871 -0.54869 -0.0486425)
(13.1651 -0.486431 -0.0428464)
(13.172 -0.425594 -0.0373221)
(13.1975 -0.368885 -0.0322557)
(13.234 -0.317672 -0.0277344)
(13.2762 -0.272481 -0.0237916)
(13.3212 -0.232758 -0.0203915)
(13.3659 -0.19983 -0.0175036)
(13.4083 -0.172243 -0.0150852)
(13.448 -0.148811 -0.0130401)
(13.4848 -0.12903 -0.0113161)
(13.5186 -0.112359 -0.00986403)
(13.5495 -0.0982725 -0.00863924)
(13.5779 -0.0863143 -0.0076014)
(13.6037 -0.076076 -0.00672031)
(13.6276 -0.0670872 -0.00593439)
(13.6479 -0.0590315 -0.00532324)
(13.6739 -0.050628 -0.00431401)
(14.0057 0.213743 0.0169302)
(14.0388 0.611774 0.0475918)
(14.1217 0.990285 0.0766037)
(14.3161 1.28578 0.0997349)
(14.6134 1.31396 0.100151)
(14.8424 0.991412 0.0728479)
(14.8124 0.487516 0.033977)
(14.539 0.0260394 -0.0018557)
(14.2096 -0.247496 -0.0216394)
(13.9398 -0.382987 -0.0306935)
(13.7447 -0.436109 -0.0338002)
(13.6114 -0.443558 -0.033717)
(13.5256 -0.426446 -0.0320137)
(13.4751 -0.39664 -0.0295284)
(13.4503 -0.360971 -0.0267157)
(13.4439 -0.32356 -0.0238489)
(13.4503 -0.286927 -0.0210907)
(13.4652 -0.252622 -0.018538)
(13.4854 -0.221143 -0.0162307)
(13.5087 -0.193398 -0.0141946)
(13.5332 -0.169244 -0.0124347)
(13.5575 -0.148257 -0.0109058)
(13.5812 -0.13014 -0.0095866)
(13.6039 -0.114563 -0.00845377)
(13.6254 -0.101183 -0.007483)
(13.6457 -0.0896747 -0.00665005)
(13.6647 -0.0797219 -0.00593691)
(13.6827 -0.0709246 -0.00529736)
(13.6984 -0.0629925 -0.00479965)
(13.7194 -0.0545851 -0.00396254)
(14.0094 0.168992 0.0116893)
(14.0611 0.485458 0.0327448)
(14.1536 0.773403 0.0515405)
(14.311 0.982723 0.065137)
(14.5107 1.01148 0.0658005)
(14.6557 0.814815 0.0516646)
(14.6554 0.495518 0.0302508)
(14.5148 0.174704 0.00910917)
(14.3156 -0.0546733 -0.00529835)
(14.1275 -0.197532 -0.0139704)
(13.9726 -0.276855 -0.0185678)
(13.8536 -0.313363 -0.0205031)
(13.7667 -0.322673 -0.0208153)
(13.7061 -0.315329 -0.0201653)
(13.6663 -0.298223 -0.0189641)
(13.6424 -0.275887 -0.0174805)
(13.6305 -0.2513 -0.0158887)
(13.6275 -0.226455 -0.0143024)
(13.6309 -0.202503 -0.0127867)
(13.6386 -0.180175 -0.011392)
(13.6492 -0.160031 -0.0101389)
(13.6613 -0.142055 -0.00901973)
(13.6743 -0.126173 -0.00803144)
(13.6876 -0.11225 -0.00716606)
(13.7009 -0.100103 -0.00641274)
(13.714 -0.0895256 -0.00575872)
(13.7267 -0.0803023 -0.00519495)
(13.7394 -0.0721144 -0.00468825)
(13.7507 -0.0647162 -0.0042948)
(13.7668 -0.0567013 -0.00362165)
(14.01 0.129091 0.00800859)
(14.0656 0.378295 0.0226227)
(14.1545 0.604832 0.0354369)
(14.2838 0.766283 0.0443207)
(14.4309 0.800915 0.045508)
(14.5383 0.684305 0.0380168)
(14.557 0.473697 0.0257155)
(14.4868 0.244961 0.0126057)
(14.3669 0.0586826 0.00232712)
(14.2382 -0.0744899 -0.00486456)
(14.1204 -0.160958 -0.00944091)
(14.0213 -0.211386 -0.0120442)
(13.942 -0.236262 -0.0132833)
(13.8809 -0.243757 -0.0136107)
(13.8354 -0.239901 -0.0133475)
(13.8028 -0.228988 -0.0127208)
(13.7804 -0.214027 -0.0118883)
(13.7661 -0.19712 -0.0109592)
(13.7581 -0.179646 -0.0100051)
(13.7549 -0.162534 -0.00907677)
(13.7551 -0.146451 -0.00820639)
(13.7578 -0.131654 -0.00740508)
(13.7622 -0.11826 -0.00667955)
(13.7678 -0.106288 -0.00603117)
(13.7741 -0.0956843 -0.00545783)
(13.7811 -0.0863497 -0.00495462)
(13.7883 -0.0781622 -0.0045188)
(13.7961 -0.0708909 -0.00412818)
(13.8034 -0.0643537 -0.00382672)
(13.8149 -0.0570689 -0.00330466)
(14.0087 0.095388 0.00548651)
(14.0605 0.289942 0.0158109)
(14.1407 0.47208 0.0249902)
(14.2491 0.603542 0.0313749)
(14.3665 0.642905 0.0329223)
(14.4567 0.575391 0.0290126)
(14.4894 0.434671 0.0216881)
(14.4615 0.269356 0.0132582)
(14.3925 0.121125 0.00591031)
(14.3071 0.00469459 0.000199107)
(14.2205 -0.0787194 -0.00387299)
(14.1413 -0.13363 -0.00655034)
(14.0729 -0.166347 -0.00815808)
(14.0161 -0.182783 -0.00898435)
(13.9702 -0.187784 -0.00926123)
(13.9339 -0.185083 -0.00916544)
(13.9059 -0.177447 -0.00882812)
(13.8848 -0.166897 -0.00834542)
(13.8694 -0.154851 -0.00778514)
(13.8585 -0.142307 -0.00719606)
(13.8512 -0.129973 -0.00661305)
(13.8467 -0.118246 -0.00605514)
(13.8444 -0.107362 -0.00553474)
(13.8438 -0.0974418 -0.00505894)
(13.8444 -0.0885273 -0.00463114)
(13.8461 -0.0806069 -0.00425179)
(13.8486 -0.0736429 -0.00392237)
(13.852 -0.0674925 -0.00363012)
(13.8557 -0.0620643 -0.00340696)
(13.8629 -0.0557958 -0.00302072)
(14.0063 0.0679134 0.00379091)
(14.0507 0.218146 0.0112811)
(14.1208 0.365655 0.0181799)
(14.214 0.475024 0.0231332)
(14.3144 0.516326 0.024861)
(14.397 0.479664 0.0229373)
(14.4408 0.38554 0.0184771)
(14.4407 0.265963 0.0128957)
(14.4066 0.150252 0.00757807)
(14.3532 0.0526635 0.00308989)
(14.2921 -0.0223746 -0.000390125)
(14.2309 -0.0758118 -0.00290807)
(14.1741 -0.110997 -0.00461401)
(14.1235 -0.131919 -0.00568013)
(14.0799 -0.142267 -0.0062656)
(14.0431 -0.145075 -0.00650084)
(14.0126 -0.142729 -0.00648979)
(13.9875 -0.13705 -0.00631307)
(13.9673 -0.129373 -0.00603107)
(13.9512 -0.120669 -0.00568898)
(13.9386 -0.111635 -0.00532052)
(13.9287 -0.102725 -0.00494775)
(13.9212 -0.0942292 -0.00458607)
(13.9155 -0.0863311 -0.00424589)
(13.9115 -0.0791344 -0.00393401)
(13.9087 -0.072693 -0.00365451)
(13.9071 -0.0670424 -0.00341151)
(13.9067 -0.0621244 -0.0032005)
(13.9071 -0.0579785 -0.00304167)
(13.9103 -0.0529762 -0.00277528)
(14.0033 0.0461566 0.00265964)
(14.039 0.160174 0.00830457)
(14.0998 0.278335 0.013757)
(14.1821 0.368461 0.017844)
(14.2728 0.408422 0.019643)
(14.3529 0.391249 0.0188483)
(14.4059 0.329492 0.0161002)
(14.4257 0.24431 0.0123061)
(14.4166 0.15633 0.00838595)
(14.3876 0.0777312 0.00483588)
(14.3471 0.013873 0.00188731)
(14.3017 -0.0342737 -0.000407186)
(14.2558 -0.068143 -0.00209537)
(14.2121 -0.0902185 -0.00327093)
(14.1722 -0.103123 -0.00403593)
(14.1365 -0.109202 -0.00448334)
(14.1052 -0.110399 -0.00469321)
(14.0781 -0.108258 -0.00473144)
(14.055 -0.103956 -0.00465023)
(14.0353 -0.0983693 -0.00449036)
(14.0187 -0.0921438 -0.00428342)
(14.0049 -0.0857254 -0.00405223)
(13.9933 -0.0794184 -0.0038136)
(13.9837 -0.0734298 -0.00357979)
(13.9758 -0.0678986 -0.00335972)
(13.9694 -0.0629216 -0.00315998)
(13.9642 -0.058595 -0.00298598)
(13.9603 -0.0549352 -0.00284074)
(13.9577 -0.0521672 -0.00273262)
(13.9571 -0.0486599 -0.00257074)
(13.9999 0.029399 0.00188835)
(14.0272 0.113315 0.00636813)
(14.0805 0.204571 0.0109302)
(14.1555 0.275845 0.0144893)
(14.241 0.311411 0.0163169)
(14.3213 0.306262 0.0161921)
(14.3822 0.26776 0.0145062)
(14.4171 0.209437 0.011863)
(14.4269 0.145428 0.00890258)
(14.417 0.0853054 0.00604158)
(14.3933 0.0341656 0.00351613)
(14.3615 -0.00617447 0.00142846)
(14.3256 -0.0359954 -0.000210614)
(14.2888 -0.0566526 -0.00144027)
(14.253 -0.0698783 -0.0023205)
(14.2193 -0.0773701 -0.00291524)
(14.1884 -0.0806149 -0.00328486)
(14.1604 -0.0808392 -0.00348258)
(14.1355 -0.0790083 -0.00355308)
(14.1134 -0.0758603 -0.00353289)
(14.0941 -0.0719489 -0.00345144)
(14.0771 -0.0676724 -0.00333138)
(14.0624 -0.0633129 -0.00319019)
(14.0496 -0.059073 -0.00304126)
(14.0385 -0.055101 -0.00289478)
(14.0289 -0.0515148 -0.00275925)
(14.0207 -0.0484558 -0.00264021)
(14.0137 -0.0459954 -0.00254781)
(14.0083 -0.0446005 -0.00247745)
(14.0036 -0.0428017 -0.00240659)
(13.997 0.0167506 0.0013108)
(14.0174 0.0750778 0.00514085)
(14.0651 0.140173 0.00921806)
(14.1354 0.192035 0.01248)
(14.2182 0.220668 0.0143478)
(14.2998 0.2224 0.0146622)
(14.3679 0.200885 0.0136711)
(14.4151 0.164122 0.0117906)
(14.4403 0.121153 0.00948752)
(14.446 0.0788107 0.00711153)
(14.4366 0.0412755 0.00489146)
(14.4167 0.0104788 0.00295413)
(14.39 -0.0132261 0.00134829)
(14.3598 -0.0304282 7.22808e-05)
(14.3283 -0.0421451 -0.000903149)
(14.297 -0.0494883 -0.00161944)
(14.2671 -0.0534923 -0.00212126)
(14.239 -0.0550454 -0.00245145)
(14.213 -0.0548685 -0.00264835)
(14.1893 -0.0535258 -0.00274493)
(14.1679 -0.0514484 -0.00276881)
(14.1487 -0.0489557 -0.00274234)
(14.1314 -0.0462798 -0.00268338)
(14.1159 -0.0435947 -0.0026062)
(14.1022 -0.0410346 -0.00252183)
(14.0898 -0.0387162 -0.00244043)
(14.0788 -0.0368038 -0.00236667)
(14.0688 -0.0353915 -0.00231769)
(14.0607 -0.0351997 -0.00227296)
(14.0514 -0.0352377 -0.00228104)
(13.996 0.00671722 0.000762708)
(14.0112 0.0432446 0.00448832)
(14.0544 0.0821814 0.00837337)
(14.1206 0.11418 0.0115197)
(14.2013 0.133845 0.0135031)
(14.2849 0.138479 0.0141841)
(14.36 0.129091 0.0137018)
(14.4187 0.109668 0.0123538)
(14.4578 0.085164 0.010497)
(14.4781 0.0597451 0.00843697)
(14.4822 0.0362691 0.00639928)
(14.4736 0.0163022 0.00452942)
(14.4561 0.000388132 0.00290435)
(14.4327 -0.0115997 0.00155093)
(14.4059 -0.0201412 0.000463277)
(14.3776 -0.0258483 -0.00038267)
(14.3492 -0.029336 -0.00101939)
(14.3216 -0.0311552 -0.00148171)
(14.2952 -0.0317656 -0.00180318)
(14.2705 -0.0315345 -0.00201413)
(14.2475 -0.0307454 -0.00214093)
(14.2263 -0.0296138 -0.00220586)
(14.2069 -0.028296 -0.00222716)
(14.1891 -0.0269167 -0.00222012)
(14.1729 -0.0255683 -0.00219625)
(14.158 -0.0243416 -0.00216735)
(14.1444 -0.023393 -0.00213682)
(14.1313 -0.0227496 -0.00212729)
(14.1207 -0.0233401 -0.0021005)
(14.105 -0.0251406 -0.00217647)
(13.9982 0.000719383 0.000333913)
(14.0095 0.0169019 0.00418336)
(14.0463 0.0346567 0.00813813)
(14.1063 0.0508764 0.0114422)
(14.1831 0.0628909 0.0137827)
(14.2677 0.0688483 0.0149926)
(14.3499 0.0682819 0.0150982)
(14.4213 0.0622013 0.0142865)
(14.4765 0.0524938 0.0128317)
(14.5141 0.0410967 0.0110088)
(14.5347 0.0295852 0.00904962)
(14.5409 0.0190293 0.00712752)
(14.5356 0.0100076 0.00535606)
(14.5218 0.00271705 0.003797)
(14.5021 -0.00289018 0.00247387)
(14.4788 -0.00700175 0.00138448)
(14.4535 -0.00986553 0.000510931)
(14.4274 -0.0117365 -0.000172866)
(14.4015 -0.0128468 -0.000695871)
(14.3764 -0.0133941 -0.00108678)
(14.3523 -0.0135385 -0.00137203)
(14.3295 -0.0134065 -0.00157506)
(14.3081 -0.0130943 -0.00171578)
(14.288 -0.0126773 -0.00181143)
(14.2693 -0.0122163 -0.00187536)
(14.2516 -0.0117567 -0.00192161)
(14.2353 -0.0113986 -0.0019535)
(14.2186 -0.0111386 -0.00199875)
(14.2059 -0.011369 -0.00200401)
(14.1798 -0.0131451 -0.00211975)
(13.8905 0.0751594 0.229198)
(13.2544 0.278843 0.847813)
(11.6551 0.312674 1.60821)
(7.23089 0.404078 3.75322)
(1.62768 -0.121426 -1.40559)
(4.99411 -0.141562 -1.34577)
(7.29712 -0.102722 -0.944732)
(8.88939 -0.0713913 -0.650023)
(10.0168 -0.0499535 -0.453077)
(10.8301 -0.0356108 -0.322422)
(11.4276 -0.0259534 -0.234772)
(11.8749 -0.0193356 -0.174822)
(12.2156 -0.0147026 -0.132869)
(12.5259 -0.0218564 -0.10988)
(12.7958 -0.0321499 -0.097189)
(12.9405 -0.0262378 -0.0793394)
(13.058 -0.0215582 -0.0652007)
(13.1561 -0.0179068 -0.0541367)
(13.2387 -0.0150334 -0.0454307)
(13.3087 -0.0127366 -0.0384784)
(13.3686 -0.010875 -0.0328462)
(13.42 -0.00934913 -0.0282212)
(13.465 -0.00802278 -0.0242334)
(13.5012 -0.00700907 -0.020972)
(13.5441 -0.00543225 -0.0168933)
(13.9021 0.202498 0.202711)
(13.3901 0.72082 0.7221)
(12.1374 1.37622 1.37978)
(8.8448 3.13811 3.12928)
(3.82694 -1.39353 -1.4085)
(6.58844 -1.15433 -1.17569)
(8.2953 -0.812385 -0.822736)
(9.50822 -0.570868 -0.575416)
(10.4058 -0.406916 -0.40901)
(11.0808 -0.29527 -0.296316)
(11.594 -0.218406 -0.218977)
(11.9888 -0.164646 -0.164988)
(12.2961 -0.126354 -0.126577)
(12.5924 -0.104618 -0.104775)
(12.8557 -0.0921141 -0.0922364)
(12.9876 -0.075603 -0.0756983)
(13.0958 -0.0624396 -0.062516)
(13.1869 -0.0520594 -0.0521225)
(13.2642 -0.0438405 -0.043894)
(13.3301 -0.0372434 -0.0372897)
(13.3868 -0.0318759 -0.0319165)
(13.4357 -0.0274506 -0.0274866)
(13.4786 -0.0236312 -0.0236634)
(13.5136 -0.020491 -0.0205197)
(13.5547 -0.0165388 -0.0165641)
(13.9295 0.274272 0.164521)
(13.5813 0.91025 0.545304)
(12.8815 1.80159 0.998782)
(11.8391 4.05987 2.28152)
(9.33117 7.01537 3.79663)
(4.46792 -2.6916 -1.36337)
(8.48858 -2.22353 -1.15986)
(9.34255 -1.54908 -0.815922)
(10.042 -1.11328 -0.590347)
(10.6477 -0.817652 -0.433689)
(11.1636 -0.609392 -0.322748)
(11.5947 -0.459876 -0.243211)
(11.9503 -0.351411 -0.185651)
(12.2417 -0.271973 -0.143579)
(12.4802 -0.21324 -0.112489)
(12.7308 -0.170403 -0.0943251)
(12.9633 -0.139648 -0.083516)
(13.0732 -0.115723 -0.0692196)
(13.1654 -0.0964967 -0.0576769)
(13.2443 -0.0810853 -0.0484578)
(13.3121 -0.0687275 -0.041074)
(13.3707 -0.0587128 -0.0350912)
(13.4215 -0.0504974 -0.030185)
(13.4658 -0.0436629 -0.0261132)
(13.5049 -0.0377759 -0.0225832)
(13.5372 -0.0326629 -0.0196658)
(13.5753 -0.0272383 -0.0159605)
(13.963 0.29199 0.12693)
(13.7643 0.921765 0.395809)
(13.5842 1.81911 0.780496)
(13.4058 3.17881 1.22989)
(14.252 5.24023 1.89406)
(17.7636 6.36604 1.90145)
(14.3065 -4.09313 -1.41032)
(11.92 -2.67778 -0.966274)
(11.4344 -1.83987 -0.66162)
(11.3917 -1.37425 -0.492919)
(11.5168 -1.062 -0.381061)
(11.7155 -0.832135 -0.298372)
(11.9393 -0.655928 -0.234822)
(12.1618 -0.519149 -0.185559)
(12.3691 -0.412816 -0.147365)
(12.5549 -0.330166 -0.117755)
(12.7179 -0.266035 -0.0947699)
(12.9101 -0.213254 -0.0811044)
(13.0997 -0.171593 -0.0727445)
(13.1842 -0.144005 -0.0610634)
(13.2572 -0.121508 -0.0514762)
(13.3211 -0.103146 -0.0436912)
(13.3771 -0.0881836 -0.0373584)
(13.4263 -0.0758973 -0.0321618)
(13.4696 -0.0657073 -0.0278554)
(13.5078 -0.0571466 -0.0242509)
(13.5419 -0.049735 -0.0211057)
(13.5704 -0.0431796 -0.0184917)
(13.6047 -0.03648 -0.0151373)
(13.9857 0.276191 0.0941259)
(13.9097 0.826704 0.277411)
(13.8839 1.48706 0.492264)
(13.98 2.28266 0.646693)
(14.7364 2.88325 0.843526)
(16.0785 2.67849 0.718993)
(16.6445 0.484726 0.115161)
(14.7776 -1.06346 -0.324531)
(13.5594 -1.27218 -0.381728)
(12.9744 -1.13266 -0.336751)
(12.7187 -0.966805 -0.284732)
(12.626 -0.819784 -0.239776)
(12.6222 -0.691798 -0.201459)
(12.6694 -0.580498 -0.168547)
(12.7448 -0.484721 -0.140439)
(12.8334 -0.403504 -0.116733)
(12.9256 -0.335517 -0.0969861)
(13.0154 -0.279144 -0.0807027)
(13.1014 -0.233452 -0.0674083)
(13.2476 -0.188284 -0.0614648)
(13.3074 -0.160275 -0.0523465)
(13.3612 -0.136997 -0.04472)
(13.4097 -0.117641 -0.0384063)
(13.4532 -0.10158 -0.0331755)
(13.4922 -0.0881897 -0.0288197)
(13.5272 -0.0769436 -0.0251666)
(13.5586 -0.067396 -0.0220802)
(13.5871 -0.0590695 -0.0193678)
(13.6113 -0.0516263 -0.017102)
(13.641 -0.0440437 -0.0141542)
(13.9994 0.242226 0.0677933)
(13.999 0.700484 0.193692)
(14.0537 1.16945 0.321078)
(14.2873 1.56049 0.431855)
(14.7253 1.63563 0.447021)
(15.1747 1.4812 0.338402)
(15.2574 0.554954 0.120448)
(14.544 -0.21176 -0.0742202)
(14.0411 -0.489183 -0.145841)
(13.6838 -0.585906 -0.164682)
(13.4605 -0.591199 -0.161559)
(13.3286 -0.55737 -0.150117)
(13.258 -0.508186 -0.135688)
(13.2292 -0.453961 -0.12052)
(13.2288 -0.399802 -0.105726)
(13.2471 -0.348543 -0.0919333)
(13.2771 -0.301706 -0.0794722)
(13.3134 -0.260001 -0.0684897)
(13.3533 -0.223126 -0.0589196)
(13.3937 -0.192137 -0.0507761)
(13.4324 -0.166063 -0.0438999)
(13.469 -0.14384 -0.0380463)
(13.5032 -0.125009 -0.0330866)
(13.5349 -0.109086 -0.0288957)
(13.564 -0.0955934 -0.0253509)
(13.5908 -0.0841125 -0.022341)
(13.6153 -0.0742627 -0.0197745)
(13.638 -0.0656082 -0.0175042)
(13.6576 -0.0578078 -0.0156007)
(13.6824 -0.0497943 -0.0130821)
(14.0067 0.200951 0.0477296)
(14.0447 0.574154 0.134404)
(14.1312 0.922983 0.214462)
(14.318 1.1848 0.27559)
(14.5909 1.21752 0.279363)
(14.8018 0.929655 0.204504)
(14.7785 0.475636 0.1019)
(14.5342 0.0527722 0.00207538)
(14.2313 -0.207298 -0.0552027)
(13.9757 -0.341965 -0.0826227)
(13.7868 -0.398568 -0.0930156)
(13.6552 -0.410689 -0.0940425)
(13.5687 -0.398364 -0.0901403)
(13.516 -0.373038 -0.0837471)
(13.4882 -0.341383 -0.0762215)
(13.4784 -0.307461 -0.0683863)
(13.4814 -0.27379 -0.0607442)
(13.493 -0.241947 -0.0535999)
(13.5102 -0.21249 -0.0470898)
(13.5308 -0.186372 -0.0412988)
(13.5528 -0.163502 -0.0362607)
(13.575 -0.143544 -0.03187)
(13.5969 -0.126255 -0.0280668)
(13.618 -0.111346 -0.024791)
(13.6381 -0.0985085 -0.0219769)
(13.6572 -0.0874443 -0.0195581)
(13.6751 -0.0778604 -0.0174788)
(13.6922 -0.0693862 -0.0156307)
(13.7073 -0.0617034 -0.0140794)
(13.7273 -0.0536902 -0.011987)
(14.0097 0.159725 0.0330954)
(14.0629 0.458774 0.093028)
(14.1558 0.72848 0.145799)
(14.3077 0.921105 0.182974)
(14.4961 0.951123 0.186213)
(14.6334 0.773777 0.147627)
(14.6364 0.480727 0.0890192)
(14.509 0.182593 0.0296508)
(14.3238 -0.0357354 -0.0119034)
(14.1451 -0.174667 -0.0373931)
(13.9957 -0.253611 -0.0513019)
(13.8795 -0.291518 -0.0575281)
(13.7936 -0.302992 -0.0589661)
(13.7328 -0.298052 -0.0575172)
(13.692 -0.283326 -0.0543806)
(13.6667 -0.263209 -0.0503463)
(13.6532 -0.240616 -0.0459331)
(13.6484 -0.217513 -0.0414817)
(13.65 -0.195055 -0.0371948)
(13.6561 -0.173979 -0.0332133)
(13.6651 -0.154857 -0.0296162)
(13.6758 -0.137726 -0.0263948)
(13.6875 -0.122541 -0.0235404)
(13.6997 -0.109194 -0.0210342)
(13.712 -0.0975229 -0.0188476)
(13.7241 -0.0873442 -0.0169466)
(13.7361 -0.0784571 -0.0153016)
(13.748 -0.070569 -0.0138372)
(13.7589 -0.0634034 -0.0126112)
(13.7741 -0.0557717 -0.0109235)
(14.0099 0.122538 0.022761)
(14.0655 0.359456 0.0646274)
(14.1536 0.574122 0.101089)
(14.2792 0.726076 0.126082)
(14.4203 0.760686 0.130134)
(14.5241 0.654468 0.109717)
(14.5446 0.458956 0.0754499)
(14.4811 0.244295 0.0383437)
(14.3691 0.0666141 0.0086557)
(14.2466 -0.0620994 -0.0123679)
(14.1332 -0.14678 -0.0259431)
(14.0368 -0.197023 -0.0338309)
(13.9591 -0.222594 -0.0377338)
(13.8987 -0.23123 -0.0389447)
(13.8532 -0.228699 -0.0383937)
(13.8201 -0.219145 -0.0367425)
(13.7971 -0.205486 -0.0344546)
(13.782 -0.189776 -0.0318532)
(13.773 -0.173374 -0.0291527)
(13.7688 -0.157192 -0.0265025)
(13.7681 -0.141901 -0.0240031)
(13.7699 -0.127777 -0.0216939)
(13.7734 -0.114953 -0.0195961)
(13.7782 -0.103462 -0.0177164)
(13.7838 -0.0932643 -0.0160508)
(13.7901 -0.0842755 -0.0145872)
(13.7967 -0.0763843 -0.0133151)
(13.8039 -0.0693816 -0.0121861)
(13.8108 -0.063053 -0.0112492)
(13.8216 -0.0561283 -0.00993303)
(14.0085 0.0908483 0.0156401)
(14.0597 0.276638 0.0453849)
(14.1387 0.450541 0.0717578)
(14.2446 0.575896 0.0900777)
(14.3586 0.614707 0.0948725)
(14.4468 0.552993 0.0842146)
(14.4804 0.421285 0.0636223)
(14.4561 0.265076 0.0396104)
(14.3919 0.123338 0.0183473)
(14.3106 0.0109506 0.00167583)
(14.2274 -0.0702815 -0.0103226)
(14.1506 -0.124298 -0.0183029)
(14.0838 -0.156929 -0.0231672)
(14.028 -0.173763 -0.0257381)
(13.9825 -0.179427 -0.0266847)
(13.9464 -0.177514 -0.0265204)
(13.9183 -0.170699 -0.0256291)
(13.8969 -0.160951 -0.0242932)
(13.881 -0.149655 -0.0227139)
(13.8696 -0.137791 -0.0210355)
(13.8618 -0.126055 -0.0193625)
(13.8568 -0.114851 -0.0177544)
(13.8539 -0.10442 -0.0162492)
(13.8527 -0.0948909 -0.0148693)
(13.8529 -0.0863131 -0.013626)
(13.8541 -0.0786841 -0.0125223)
(13.8561 -0.071973 -0.0115609)
(13.8591 -0.0660553 -0.010716)
(13.8625 -0.0608069 -0.0100272)
(13.8691 -0.0548657 -0.00904388)
(14.0061 0.0648356 0.0108262)
(14.0497 0.208747 0.032513)
(14.1187 0.350257 0.0524795)
(14.21 0.455318 0.0668608)
(14.3082 0.495822 0.0720632)
(14.3895 0.462423 0.0668514)
(14.4336 0.37388 0.0542398)
(14.4357 0.260354 0.0382614)
(14.4044 0.149475 0.0228464)
(14.354 0.0552796 0.00974526)
(14.2954 -0.0176296 -0.00048305)
(14.2362 -0.0699117 -0.00793892)
(14.1809 -0.104624 -0.0130325)
(14.1314 -0.125521 -0.0162528)
(14.0885 -0.13612 -0.0180575)
(14.0521 -0.139339 -0.018825)
(14.0217 -0.137484 -0.0188587)
(13.9968 -0.132322 -0.018395)
(13.9764 -0.125155 -0.0176122)
(13.9601 -0.116931 -0.0166436)
(13.9472 -0.108337 -0.0155894)
(13.9371 -0.0998209 -0.0145164)
(13.9292 -0.0916758 -0.013471)
(13.9233 -0.0840861 -0.0124847)
(13.9189 -0.07716 -0.0115785)
(13.9158 -0.0709565 -0.0107656)
(13.9139 -0.0655146 -0.010057)
(13.9131 -0.060791 -0.0094461)
(13.9133 -0.0567929 -0.00896345)
(13.9161 -0.0520771 -0.00827288)
(14.0031 0.0441257 0.00759772)
(14.0381 0.153563 0.0240157)
(14.0978 0.267253 0.0398903)
(14.1787 0.354187 0.0518314)
(14.2678 0.393271 0.0571933)
(14.3468 0.377897 0.0551065)
(14.3998 0.31964 0.0473104)
(14.4208 0.23852 0.036406)
(14.4135 0.154086 0.025022)
(14.3865 0.0782047 0.0146522)
(14.348 0.0162286 0.005993)
(14.3042 -0.0307456 -0.000781113)
(14.2597 -0.0639824 -0.00579264)
(14.2171 -0.0858068 -0.0093046)
(14.178 -0.0987161 -0.0116095)
(14.1428 -0.104962 -0.0129769)
(14.1119 -0.106422 -0.0136401)
(14.0851 -0.104594 -0.013792)
(14.062 -0.100621 -0.0135863)
(14.0424 -0.0953613 -0.0131432)
(14.0258 -0.0894456 -0.0125562)
(14.0118 -0.0833139 -0.0118936)
(14.0001 -0.0772677 -0.0112055)
(13.9903 -0.0715136 -0.0105287)
(13.9822 -0.0661917 -0.00989002)
(13.9756 -0.0614016 -0.00930941)
(13.9702 -0.0572398 -0.00880323)
(13.9661 -0.0537353 -0.00838074)
(13.9633 -0.0510818 -0.00806345)
(13.9624 -0.0478126 -0.0076272)
(13.9998 0.0281109 0.00538471)
(14.0265 0.108749 0.0184724)
(14.0789 0.196715 0.0318228)
(14.1527 0.265611 0.042256)
(14.2369 0.300331 0.047682)
(14.316 0.296104 0.0474674)
(14.3767 0.259753 0.0426803)
(14.4122 0.204113 0.0350595)
(14.4232 0.142631 0.0264456)
(14.4146 0.0845857 0.0180779)
(14.3925 0.034995 0.0106599)
(14.362 -0.00428961 0.00450306)
(14.3273 -0.0334591 -0.000349492)
(14.2916 -0.0537691 -0.00400431)
(14.2566 -0.0668639 -0.0066325)
(14.2235 -0.074372 -0.00841904)
(14.1931 -0.0777276 -0.00953985)
(14.1655 -0.0781189 -0.0101506)
(14.1408 -0.0764844 -0.0103827)
(14.1189 -0.0735436 -0.0103437)
(14.0997 -0.0698376 -0.0101207)
(14.0828 -0.0657575 -0.00978093)
(14.0681 -0.0615815 -0.00937629)
(14.0552 -0.0575102 -0.00894672)
(14.0441 -0.0536913 -0.00852275)
(14.0344 -0.0502438 -0.00812923)
(14.0261 -0.0473075 -0.0077847)
(14.0189 -0.0449628 -0.00751182)
(14.0133 -0.0436495 -0.00732151)
(14.0084 -0.0420305 -0.00710547)
(13.997 0.0159725 0.00371526)
(14.0169 0.0720806 0.0149438)
(14.0639 0.134916 0.0269214)
(14.133 0.185093 0.0365062)
(14.2145 0.212994 0.0420514)
(14.2951 0.215107 0.0430878)
(14.3626 0.194813 0.0402882)
(14.41 0.159712 0.0348549)
(14.4358 0.118423 0.0281388)
(14.4425 0.0775511 0.0211763)
(14.4343 0.0411819 0.0146471)
(14.4154 0.0112364 0.00893163)
(14.3899 -0.0118947 0.00418105)
(14.3606 -0.0287442 0.000396574)
(14.3299 -0.0402743 -0.00250395)
(14.2994 -0.0475491 -0.00464021)
(14.27 -0.0515658 -0.00614246)
(14.2424 -0.0531841 -0.00713623)
(14.2168 -0.053104 -0.00773439)
(14.1934 -0.0518752 -0.0080342)
(14.1722 -0.0499181 -0.00811722)
(14.1531 -0.0475457 -0.00804971)
(14.136 -0.044986 -0.00788461)
(14.1206 -0.0424105 -0.00766434)
(14.1068 -0.0399519 -0.0074219)
(14.0945 -0.0377267 -0.0071862)
(14.0835 -0.0358973 -0.00697573)
(14.0734 -0.0345599 -0.00682375)
(14.0652 -0.0344219 -0.00672575)
(14.0557 -0.0345677 -0.00669956)
(13.9961 0.00631719 0.00216247)
(14.0108 0.0415099 0.0130083)
(14.0533 0.0791567 0.0244137)
(14.1184 0.110131 0.0336781)
(14.1978 0.129271 0.0395802)
(14.2802 0.133988 0.0417006)
(14.3545 0.125176 0.0404033)
(14.413 0.106632 0.0365397)
(14.4525 0.083082 0.0311429)
(14.4733 0.058548 0.0251151)
(14.4782 0.0358116 0.0191256)
(14.4707 0.0164138 0.0136092)
(14.4541 0.000907681 0.0087999)
(14.4316 -0.0108077 0.00478342)
(14.4056 -0.0191832 0.00154729)
(14.3781 -0.0248034 -0.000976208)
(14.3504 -0.0282604 -0.0028809)
(14.3233 -0.0300872 -0.00426843)
(14.2974 -0.0307299 -0.00523729)
(14.273 -0.0305463 -0.00587698)
(14.2504 -0.0298128 -0.00626551)
(14.2295 -0.0287403 -0.00646899)
(14.2103 -0.0274821 -0.00654168)
(14.1927 -0.026161 -0.00652884)
(14.1766 -0.0248679 -0.00646559)
(14.1618 -0.0236924 -0.00638471)
(14.1482 -0.0227916 -0.00630418)
(14.1352 -0.022182 -0.00626439)
(14.1246 -0.0228102 -0.00623342)
(14.1088 -0.0246212 -0.00637005)
(13.9983 0.000615572 0.000986333)
(14.0093 0.0161816 0.0119799)
(14.0453 0.0333839 0.0234337)
(14.1042 0.0491289 0.0330825)
(14.1798 0.0608635 0.039966)
(14.263 0.066798 0.0435985)
(14.3442 0.0664329 0.044033)
(14.4149 0.0607107 0.041787)
(14.4699 0.0514243 0.0376402)
(14.5076 0.0404398 0.03239)
(14.5287 0.0292881 0.0267141)
(14.5356 0.019018 0.0211217)
(14.5311 0.0102064 0.0159488)
(14.5181 0.00305865 0.0113813)
(14.4993 -0.00246076 0.00749315)
(14.4767 -0.00652597 0.00428218)
(14.4521 -0.00937283 0.00169938)
(14.4267 -0.0112465 -0.000329014)
(14.4014 -0.0123719 -0.00188603)
(14.3768 -0.0129415 -0.00305456)
(14.3532 -0.0131117 -0.00391138)
(14.3308 -0.0130069 -0.00452489)
(14.3097 -0.0127219 -0.00495359)
(14.2899 -0.012331 -0.00524785)
(14.2714 -0.0118954 -0.00544799)
(14.254 -0.011458 -0.00559245)
(14.2379 -0.0111247 -0.00570052)
(14.2213 -0.0108726 -0.0058254)
(14.2088 -0.011138 -0.00588662)
(14.1829 -0.0128699 -0.00615877)
(13.9145 0.0601294 0.304804)
(13.5022 0.203812 1.03464)
(12.6304 0.221439 2.05791)
(10.7674 0.255659 4.51387)
(1.55513 -0.0181785 -1.27799)
(7.26595 -0.140453 -2.65524)
(8.54487 -0.101811 -1.80587)
(9.49959 -0.0731674 -1.26761)
(10.2772 -0.053002 -0.911856)
(10.9087 -0.0388804 -0.66755)
(11.4172 -0.0289237 -0.496297)
(11.8248 -0.0218389 -0.374658)
(12.1513 -0.0167382 -0.287143)
(12.4135 -0.0130193 -0.223355)
(12.6742 -0.0196276 -0.178399)
(12.9113 -0.0290286 -0.146878)
(13.0316 -0.0239391 -0.121148)
(13.1314 -0.0198573 -0.100579)
(13.2161 -0.0166272 -0.0842013)
(13.2885 -0.0140542 -0.0711433)
(13.3506 -0.0119769 -0.0606093)
(13.4043 -0.0102793 -0.0520014)
(13.4509 -0.00887801 -0.0448652)
(13.4919 -0.00765473 -0.0387284)