# Residuals   
# Time        	p             	Ux            	Uy            	Uz            
1             	1.000000e+00	1.000000e+00	1.000000e+00	1.000000e+00
2             	1.861092e-01	4.183465e-01	6.028276e-01	6.052299e-01
3             	1.719119e-01	2.924165e-01	4.167120e-01	4.156795e-01
4             	5.855988e-02	2.388765e-01	3.560343e-01	3.555659e-01
5             	6.127158e-02	2.257737e-01	3.648897e-01	3.658066e-01
6             	8.097046e-02	2.296615e-01	3.667926e-01	3.697915e-01
7             	8.988864e-02	2.224608e-01	3.521847e-01	3.584278e-01
8             	5.229718e-02	2.235853e-01	3.420671e-01	3.425542e-01
9             	3.153975e-02	2.584336e-01	3.584273e-01	3.541930e-01
10            	2.666958e-02	2.303104e-01	3.485062e-01	3.387073e-01
11            	5.183934e-02	1.988698e-01	3.286784e-01	3.280636e-01
12            	7.666656e-02	1.931318e-01	2.967514e-01	3.015007e-01
13            	1.038563e-01	1.948446e-01	2.870699e-01	2.903883e-01
14            	1.158937e-01	1.888764e-01	3.004288e-01	2.996544e-01
15            	1.153643e-01	1.953944e-01	3.003539e-01	2.949066e-01
16            	1.164940e-01	2.014705e-01	2.909162e-01	3.003783e-01
17            	1.171763e-01	2.039455e-01	2.915475e-01	3.070882e-01
18            	1.094649e-01	2.154590e-01	3.011621e-01	3.151312e-01
19            	9.524532e-02	2.206842e-01	3.118077e-01	3.160509e-01
20            	9.128630e-02	2.216354e-01	3.216872e-01	3.137422e-01
21            	8.986296e-02	2.183040e-01	3.275805e-01	3.172965e-01
22            	9.197074e-02	2.208463e-01	3.370295e-01	3.240908e-01
23            	1.014423e-01	2.168646e-01	3.475976e-01	3.164701e-01
24            	1.019325e-01	2.092681e-01	3.441574e-01	3.112328e-01
25            	9.903438e-02	1.950370e-01	3.280486e-01	3.164240e-01
26            	9.564125e-02	1.734024e-01	3.068793e-01	3.207608e-01
27            	8.971140e-02	1.545274e-01	2.846083e-01	3.127808e-01
28            	8.423584e-02	1.421333e-01	2.678650e-01	3.006779e-01
29            	7.959150e-02	1.301095e-01	2.620622e-01	2.880239e-01
30            	7.679126e-02	1.205066e-01	2.524804e-01	2.714086e-01
31            	7.412671e-02	1.134989e-01	2.383470e-01	2.564869e-01
32            	7.141733e-02	1.081818e-01	2.269649e-01	2.461081e-01
33            	6.914280e-02	1.040180e-01	2.184828e-01	2.372525e-01
34            	6.704783e-02	9.986059e-02	2.114399e-01	2.308946e-01
35            	6.543649e-02	9.565133e-02	2.032652e-01	2.246167e-01
36            	6.423268e-02	9.143406e-02	1.957798e-01	2.183278e-01
37            	6.307139e-02	8.725392e-02	1.887389e-01	2.110367e-01
38            	6.193177e-02	8.318864e-02	1.806313e-01	2.015772e-01
39            	6.112360e-02	7.933218e-02	1.717699e-01	1.908790e-01
40            	6.091112e-02	7.232699e-02	1.577079e-01	1.691581e-01
41            	6.011262e-02	7.256730e-02	1.555393e-01	1.711335e-01
42            	5.944945e-02	6.838126e-02	1.471858e-01	1.626043e-01
43            	5.906368e-02	6.451911e-02	1.403357e-01	1.529692e-01
44            	5.907984e-02	6.094555e-02	1.355267e-01	1.472800e-01
45            	5.927652e-02	5.804095e-02	1.313784e-01	1.427787e-01
46            	5.934864e-02	5.566553e-02	1.271870e-01	1.381420e-01
47            	5.939057e-02	5.368111e-02	1.229255e-01	1.330252e-01
48            	5.925047e-02	5.193186e-02	1.184631e-01	1.277249e-01
49            	5.898431e-02	5.033139e-02	1.138790e-01	1.219050e-01
50            	5.862212e-02	4.886545e-02	1.092866e-01	1.159252e-01
51            	5.808489e-02	4.744237e-02	1.049737e-01	1.103130e-01
52            	5.748716e-02	4.607742e-02	1.005418e-01	1.059760e-01
53            	5.818703e-02	4.384125e-02	9.319937e-02	9.446645e-02
54            	5.637012e-02	4.403901e-02	9.342007e-02	9.757682e-02
55            	5.678930e-02	4.195722e-02	8.626089e-02	8.836535e-02
56            	5.538470e-02	4.196085e-02	8.667848e-02	9.140101e-02
57            	5.573166e-02	3.996349e-02	7.931804e-02	8.306034e-02
58            	5.468098e-02	3.964889e-02	8.028567e-02	8.561543e-02
59            	5.417451e-02	3.828285e-02	7.626890e-02	8.234247e-02
60            	5.325630e-02	3.695313e-02	7.296137e-02	7.800397e-02
61            	5.268274e-02	3.563640e-02	7.021341e-02	7.548372e-02
62            	5.215945e-02	3.439438e-02	6.796348e-02	7.220983e-02
63            	5.164087e-02	3.326598e-02	6.612000e-02	6.969387e-02
64            	5.089695e-02	3.225370e-02	6.454800e-02	6.756948e-02
65            	4.972365e-02	3.131242e-02	6.318871e-02	6.580994e-02
66            	4.829085e-02	3.039246e-02	6.202203e-02	6.419615e-02
67            	4.666378e-02	2.954858e-02	6.093865e-02	6.249708e-02
68            	4.483012e-02	2.872604e-02	5.994911e-02	6.066659e-02
69            	4.287199e-02	2.790426e-02	5.903609e-02	5.873145e-02
70            	4.075801e-02	2.706314e-02	5.809476e-02	5.678754e-02
71            	3.868818e-02	2.617131e-02	5.714743e-02	5.482686e-02
72            	3.655580e-02	2.522688e-02	5.609027e-02	5.289363e-02
73            	3.445712e-02	2.420687e-02	5.489155e-02	5.105727e-02
74            	3.236819e-02	2.308582e-02	5.333632e-02	4.933152e-02
75            	3.025963e-02	2.191469e-02	5.132979e-02	4.757910e-02
76            	2.824943e-02	2.067508e-02	4.902458e-02	4.578804e-02
77            	2.634068e-02	1.938461e-02	4.653052e-02	4.393807e-02
78            	2.453231e-02	1.804973e-02	4.387424e-02	4.191966e-02
79            	2.284106e-02	1.668129e-02	4.125599e-02	3.981185e-02
80            	2.121494e-02	1.530916e-02	3.867429e-02	3.767555e-02
81            	1.953574e-02	1.393495e-02	3.612269e-02	3.528056e-02
82            	1.798166e-02	1.265344e-02	3.301934e-02	3.206298e-02
83            	1.643654e-02	1.146906e-02	3.038176e-02	2.900258e-02
84            	1.525854e-02	1.039171e-02	2.848846e-02	2.626399e-02
85            	1.408059e-02	9.410218e-03	2.692134e-02	2.444047e-02
86            	1.299821e-02	8.533311e-03	2.534990e-02	2.277836e-02
87            	1.196767e-02	7.771002e-03	2.372936e-02	2.115623e-02
88            	1.103620e-02	7.130148e-03	2.215903e-02	1.962689e-02
89            	1.020274e-02	6.641741e-03	2.071195e-02	1.835885e-02
90            	9.482551e-03	6.278795e-03	1.954606e-02	1.737499e-02
91            	8.878718e-03	6.013222e-03	1.865722e-02	1.664450e-02
92            	8.403557e-03	5.789808e-03	1.793848e-02	1.608484e-02
93            	8.033595e-03	5.604779e-03	1.732898e-02	1.566438e-02
94            	7.713957e-03	5.437068e-03	1.673374e-02	1.528178e-02
95            	7.432507e-03	5.272483e-03	1.632521e-02	1.484827e-02
96            	7.222249e-03	5.121007e-03	1.566265e-02	1.436362e-02
97            	6.984777e-03	4.971250e-03	1.483325e-02	1.402897e-02
98            	6.817086e-03	4.808703e-03	1.415972e-02	1.355959e-02
99            	6.583312e-03	4.663566e-03	1.329916e-02	1.302820e-02
100           	6.361340e-03	4.525528e-03	1.255729e-02	1.245863e-02
101           	6.147818e-03	4.389442e-03	1.193112e-02	1.189778e-02
102           	5.972257e-03	4.251385e-03	1.139094e-02	1.134131e-02
103           	5.796749e-03	4.111062e-03	1.093632e-02	1.079952e-02
104           	5.627942e-03	3.970483e-03	1.053997e-02	1.028304e-02
105           	5.457809e-03	3.828632e-03	1.016826e-02	9.807891e-03
106           	5.260359e-03	3.687046e-03	9.715853e-03	9.294215e-03
107           	5.059280e-03	3.550613e-03	9.332782e-03	8.879715e-03
108           	4.889237e-03	3.413067e-03	9.009050e-03	8.550165e-03
109           	4.724891e-03	3.279703e-03	8.714231e-03	8.259975e-03
110           	4.580375e-03	3.149170e-03	8.439855e-03	7.992470e-03
111           	4.427727e-03	3.021667e-03	8.177271e-03	7.753144e-03
112           	4.304607e-03	2.900104e-03	7.925063e-03	7.538478e-03
113           	4.166362e-03	2.788751e-03	7.707256e-03	7.345599e-03
114           	4.049469e-03	2.682717e-03	7.511880e-03	7.195491e-03
115           	3.935209e-03	2.588148e-03	7.340221e-03	7.064334e-03
116           	3.833276e-03	2.508462e-03	7.200532e-03	6.949131e-03
117           	3.735608e-03	2.439670e-03	7.069884e-03	6.833590e-03
118           	3.646996e-03	2.383280e-03	6.948705e-03	6.717886e-03
119           	3.575035e-03	2.345884e-03	6.926597e-03	6.690190e-03
120           	3.516382e-03	2.324432e-03	6.877570e-03	6.638775e-03
121           	3.457437e-03	2.315445e-03	6.811533e-03	6.575539e-03
122           	3.399805e-03	2.307492e-03	6.726980e-03	6.506857e-03
123           	3.343218e-03	2.306674e-03	6.617438e-03	6.413142e-03
124           	3.276835e-03	2.303338e-03	6.488306e-03	6.312123e-03
125           	3.204762e-03	2.301980e-03	6.336485e-03	6.183626e-03
126           	3.137225e-03	2.294537e-03	6.173777e-03	6.047663e-03
127           	3.057208e-03	2.286684e-03	6.000606e-03	5.893400e-03
128           	2.981115e-03	2.276274e-03	5.826938e-03	5.735624e-03
129           	2.899571e-03	2.265964e-03	5.656517e-03	5.569939e-03
130           	2.823363e-03	2.254459e-03	5.484722e-03	5.406578e-03
131           	2.754701e-03	2.242409e-03	5.319470e-03	5.241403e-03
132           	2.670515e-03	2.232446e-03	5.158964e-03	5.086011e-03
133           	2.587196e-03	2.218618e-03	5.002611e-03	4.930746e-03
134           	2.514953e-03	2.202997e-03	4.842817e-03	4.778236e-03
135           	2.441922e-03	2.187638e-03	4.691492e-03	4.630203e-03
136           	2.372331e-03	2.172043e-03	4.542753e-03	4.489455e-03
137           	2.301274e-03	2.154252e-03	4.401819e-03	4.349887e-03
138           	2.236271e-03	2.134494e-03	4.260324e-03	4.213249e-03
139           	2.174607e-03	2.115308e-03	4.149308e-03	4.096223e-03
140           	2.116066e-03	2.096403e-03	4.047166e-03	3.998173e-03
141           	2.053987e-03	2.077951e-03	3.948273e-03	3.897860e-03
142           	2.001036e-03	2.056865e-03	3.847346e-03	3.797412e-03
143           	1.935125e-03	2.035777e-03	3.741446e-03	3.689925e-03
144           	1.884346e-03	2.011021e-03	3.621713e-03	3.574455e-03
145           	1.816060e-03	1.984948e-03	3.499438e-03	3.453174e-03
146           	1.762833e-03	1.954688e-03	3.371363e-03	3.328548e-03
147           	1.707492e-03	1.923379e-03	3.248759e-03	3.203100e-03
148           	1.661500e-03	1.890917e-03	3.131187e-03	3.086011e-03
149           	1.612945e-03	1.857180e-03	3.019728e-03	2.973878e-03
150           	1.576441e-03	1.822261e-03	2.912611e-03	2.868283e-03
151           	1.532831e-03	1.788309e-03	2.810984e-03	2.766784e-03
152           	1.511732e-03	1.753242e-03	2.714929e-03	2.672686e-03
153           	1.465853e-03	1.720951e-03	2.632663e-03	2.591285e-03
154           	1.430816e-03	1.685394e-03	2.554919e-03	2.514812e-03
155           	1.390311e-03	1.648620e-03	2.475138e-03	2.439265e-03
156           	1.359350e-03	1.610898e-03	2.397391e-03	2.365810e-03
157           	1.323902e-03	1.573461e-03	2.318909e-03	2.290085e-03
158           	1.311988e-03	1.535388e-03	2.243936e-03	2.221732e-03
159           	1.257100e-03	1.500180e-03	2.170486e-03	2.154495e-03
160           	1.227920e-03	1.461388e-03	2.095032e-03	2.082497e-03
161           	1.187442e-03	1.421122e-03	2.020285e-03	2.007053e-03
162           	1.160210e-03	1.381103e-03	1.952672e-03	1.940592e-03
163           	1.121701e-03	1.342664e-03	1.881683e-03	1.868737e-03
164           	1.101865e-03	1.304002e-03	1.814045e-03	1.785555e-03
165           	1.065479e-03	1.267617e-03	1.724397e-03	1.699904e-03
166           	1.035169e-03	1.229664e-03	1.673157e-03	1.662287e-03
167           	9.947433e-04	1.191559e-03	1.585292e-03	1.571493e-03
168           	9.626254e-04	1.149651e-03	1.522338e-03	1.503299e-03
169           	9.277408e-04	1.110802e-03	1.460909e-03	1.439270e-03
170           	9.089586e-04	1.074064e-03	1.424649e-03	1.398050e-03
171           	8.745253e-04	1.039776e-03	1.386345e-03	1.359343e-03
172           	8.451255e-04	1.006602e-03	1.360394e-03	1.328478e-03
173           	8.134400e-04	9.723327e-04	1.327859e-03	1.297561e-03
174           	7.854855e-04	9.361206e-04	1.303466e-03	1.274736e-03
175           	7.533844e-04	9.013202e-04	1.272867e-03	1.244442e-03
176           	7.340631e-04	8.670614e-04	1.247950e-03	1.221402e-03
177           	7.120015e-04	8.325282e-04	1.216572e-03	1.190385e-03
178           	6.835805e-04	7.990330e-04	1.200306e-03	1.174019e-03
179           	6.552435e-04	7.671753e-04	1.169977e-03	1.143125e-03
180           	6.389326e-04	7.330426e-04	1.143954e-03	1.118089e-03
181           	6.078566e-04	7.007113e-04	1.111159e-03	1.083916e-03
182           	6.123074e-04	6.689202e-04	1.088038e-03	1.059253e-03
183           	5.690312e-04	6.414687e-04	1.064535e-03	1.037449e-03
184           	5.577410e-04	6.116374e-04	1.044790e-03	1.020638e-03
185           	5.300804e-04	5.831454e-04	1.016036e-03	9.950861e-04
186           	5.159216e-04	5.536350e-04	9.943539e-04	9.773450e-04
187           	4.893177e-04	5.258034e-04	9.649604e-04	9.525693e-04
188           	4.808659e-04	4.986965e-04	9.472304e-04	9.357540e-04
189           	4.604129e-04	4.744639e-04	9.181346e-04	9.092946e-04
190           	4.619343e-04	4.498446e-04	9.035833e-04	8.951360e-04
191           	4.336597e-04	4.295171e-04	8.826843e-04	8.772749e-04
192           	4.227088e-04	4.074498e-04	8.678848e-04	8.622132e-04
193           	4.104855e-04	3.879352e-04	8.543693e-04	8.497872e-04
194           	3.973654e-04	3.676611e-04	8.361572e-04	8.316984e-04
195           	3.927097e-04	3.522214e-04	8.180667e-04	8.159559e-04
196           	3.796510e-04	3.363854e-04	8.157392e-04	8.154373e-04
197           	3.719615e-04	3.245305e-04	7.975703e-04	8.022361e-04
198           	3.645887e-04	3.118037e-04	7.904737e-04	7.965419e-04
199           	3.563848e-04	3.023355e-04	7.713462e-04	7.795639e-04
200           	3.490382e-04	2.921813e-04	7.646756e-04	7.747799e-04
201           	3.419035e-04	2.856619e-04	7.496857e-04	7.601586e-04
202           	3.547658e-04	2.785185e-04	7.421259e-04	7.534400e-04
203           	3.336898e-04	2.790855e-04	7.336049e-04	7.434967e-04
204           	3.299385e-04	2.730201e-04	7.262786e-04	7.366509e-04
205           	3.202567e-04	2.712210e-04	7.147538e-04	7.241161e-04
206           	3.160037e-04	2.674350e-04	7.038371e-04	7.138320e-04
207           	3.055669e-04	2.670350e-04	6.859292e-04	6.950987e-04
208           	3.061570e-04	2.654196e-04	6.783513e-04	6.879254e-04
209           	3.107772e-04	2.669370e-04	6.649089e-04	6.728350e-04
210           	2.994481e-04	2.666597e-04	6.614026e-04	6.704183e-04
211           	2.892297e-04	2.670671e-04	6.459357e-04	6.510256e-04
212           	2.878678e-04	2.639555e-04	6.347994e-04	6.402271e-04
213           	2.811286e-04	2.639860e-04	6.189733e-04	6.218921e-04
214           	2.765928e-04	2.610114e-04	6.067972e-04	6.091622e-04
215           	2.754638e-04	2.606439e-04	5.911348e-04	5.916609e-04
216           	2.730132e-04	2.591879e-04	5.837126e-04	5.827610e-04
217           	2.629458e-04	2.591914e-04	5.704939e-04	5.697439e-04
218           	2.625350e-04	2.568312e-04	5.602310e-04	5.608406e-04
219           	2.613200e-04	2.554428e-04	5.442274e-04	5.452936e-04
220           	2.566153e-04	2.542306e-04	5.352037e-04	5.357785e-04
221           	2.485676e-04	2.528171e-04	5.222995e-04	5.221281e-04
222           	2.494401e-04	2.494013e-04	5.120444e-04	5.122690e-04
223           	2.374168e-04	2.464515e-04	4.957747e-04	4.953372e-04
224           	2.459564e-04	2.432010e-04	4.836887e-04	4.829185e-04
225           	2.303779e-04	2.411323e-04	4.707921e-04	4.693212e-04
226           	2.324960e-04	2.370078e-04	4.596038e-04	4.574878e-04
227           	2.216074e-04	2.335878e-04	4.466401e-04	4.431792e-04
228           	2.196293e-04	2.279081e-04	4.340170e-04	4.309994e-04
229           	2.154993e-04	2.246678e-04	4.182791e-04	4.131394e-04
230           	2.099063e-04	2.200056e-04	4.096568e-04	4.047604e-04
231           	2.009210e-04	2.168373e-04	3.950225e-04	3.889323e-04
232           	2.023551e-04	2.123317e-04	3.853213e-04	3.798291e-04
233           	1.922606e-04	2.082000e-04	3.720689e-04	3.673264e-04
234           	1.942100e-04	2.028665e-04	3.600394e-04	3.561819e-04
235           	1.808470e-04	1.989733e-04	3.493510e-04	3.462401e-04
236           	1.897034e-04	1.942677e-04	3.372029e-04	3.347748e-04
237           	1.775461e-04	1.916936e-04	3.292784e-04	3.251825e-04
238           	1.776797e-04	1.868628e-04	3.178546e-04	3.134036e-04
239           	1.682730e-04	1.815867e-04	3.090978e-04	3.055688e-04
240           	1.663891e-04	1.764699e-04	2.980252e-04	2.962921e-04
241           	1.739164e-04	1.721228e-04	2.857012e-04	2.821557e-04
242           	1.667551e-04	1.698517e-04	2.826094e-04	2.784131e-04
243           	1.568409e-04	1.655765e-04	2.708670e-04	2.676785e-04
244           	1.570770e-04	1.590472e-04	2.653709e-04	2.628665e-04
245           	1.463137e-04	1.535130e-04	2.540581e-04	2.504716e-04
246           	1.472719e-04	1.484242e-04	2.438447e-04	2.415641e-04
247           	1.466630e-04	1.437621e-04	2.360246e-04	2.309054e-04
248           	1.419458e-04	1.390065e-04	2.302719e-04	2.259345e-04
249           	1.324323e-04	1.355331e-04	2.244286e-04	2.198945e-04
250           	1.323627e-04	1.289496e-04	2.148350e-04	2.105979e-04
251           	1.343098e-04	1.244945e-04	2.061965e-04	2.018724e-04
252           	1.300412e-04	1.208602e-04	2.031869e-04	1.989848e-04
253           	1.191454e-04	1.174975e-04	1.954544e-04	1.907066e-04
254           	1.210866e-04	1.119681e-04	1.912739e-04	1.882355e-04
255           	1.103509e-04	1.081130e-04	1.848498e-04	1.823305e-04
256           	1.111281e-04	1.039873e-04	1.787062e-04	1.762862e-04
257           	1.207515e-04	1.008802e-04	1.705558e-04	1.665018e-04
258           	1.106124e-04	9.883974e-05	1.722272e-04	1.707411e-04
259           	1.004719e-04	9.645293e-05	1.659675e-04	1.631669e-04
260           	1.009133e-04	9.091351e-05	1.613592e-04	1.593033e-04
261           	9.110326e-05	8.755061e-05	1.541929e-04	1.534411e-04
262           	9.875025e-05	8.374971e-05	1.476132e-04	1.470794e-04
263           	8.560101e-05	8.176726e-05	1.469636e-04	1.462478e-04
264           	8.543079e-05	7.772722e-05	1.411985e-04	1.408712e-04
265           	8.494272e-05	7.445337e-05	1.372360e-04	1.364106e-04
266           	8.240798e-05	7.199059e-05	1.336463e-04	1.338306e-04
267           	7.523801e-05	7.010703e-05	1.305355e-04	1.295313e-04
268           	7.791259e-05	6.634787e-05	1.279059e-04	1.285880e-04
269           	7.732274e-05	6.493684e-05	1.257237e-04	1.265748e-04
270           	7.500534e-05	6.251252e-05	1.256639e-04	1.253741e-04
271           	6.949036e-05	6.149108e-05	1.235603e-04	1.216011e-04
272           	7.142565e-05	5.810488e-05	1.223716e-04	1.214496e-04
273           	7.034010e-05	5.691374e-05	1.194802e-04	1.184669e-04
274           	6.912667e-05	5.546991e-05	1.198548e-04	1.206324e-04
275           	6.493722e-05	5.455368e-05	1.202287e-04	1.199154e-04
276           	6.799240e-05	5.207939e-05	1.151492e-04	1.171172e-04
277           	6.251104e-05	5.137841e-05	1.120787e-04	1.144644e-04
278           	6.302896e-05	4.872259e-05	1.094685e-04	1.133563e-04
279           	5.879619e-05	4.828635e-05	1.090350e-04	1.128237e-04
280           	6.076452e-05	4.613179e-05	1.072572e-04	1.114668e-04
281           	6.691950e-05	4.594267e-05	1.065327e-04	1.107026e-04
282           	6.550802e-05	4.703476e-05	1.110914e-04	1.151871e-04
283           	6.008654e-05	4.725191e-05	1.098021e-04	1.119141e-04
284           	6.418006e-05	4.554076e-05	1.114069e-04	1.162000e-04
285           	5.812392e-05	4.545664e-05	1.112985e-04	1.161207e-04
286           	6.258262e-05	4.450387e-05	1.095168e-04	1.146028e-04
287           	6.084781e-05	4.505218e-05	1.094785e-04	1.109930e-04
288           	6.507761e-05	4.401694e-05	1.076565e-04	1.103506e-04
289           	7.819959e-05	4.536912e-05	1.102089e-04	1.136246e-04
290           	7.108871e-05	4.888209e-05	1.166147e-04	1.207138e-04
291           	6.350792e-05	4.944336e-05	1.157288e-04	1.213352e-04
292           	6.797909e-05	4.791101e-05	1.186817e-04	1.271420e-04
293           	6.036539e-05	4.841773e-05	1.198984e-04	1.301821e-04
294           	6.531415e-05	4.710100e-05	1.171202e-04	1.270271e-04
295           	6.078040e-05	4.746364e-05	1.159510e-04	1.211682e-04
296           	6.904629e-05	4.583727e-05	1.132438e-04	1.185160e-04
297           	5.451630e-05	4.621610e-05	1.134685e-04	1.185063e-04
298           	5.938670e-05	4.510097e-05	1.079347e-04	1.080004e-04
299           	6.289665e-05	4.454379e-05	1.063771e-04	1.077524e-04
300           	6.094055e-05	4.527916e-05	1.063364e-04	1.080180e-04
301           	5.917662e-05	4.633449e-05	1.053710e-04	1.076866e-04
302           	6.136633e-05	4.510928e-05	1.057841e-04	1.091468e-04
303           	5.323906e-05	4.548966e-05	1.032656e-04	1.059838e-04
304           	6.103377e-05	4.429582e-05	9.976866e-05	1.013969e-04
305           	5.229919e-05	4.534667e-05	9.858824e-05	9.880351e-05
306           	5.386746e-05	4.393171e-05	9.458296e-05	9.485917e-05
307           	4.898816e-05	4.303225e-05	9.544243e-05	9.396524e-05
308           	6.396814e-05	4.177986e-05	8.894362e-05	8.889054e-05
309           	5.071345e-05	4.388293e-05	9.515142e-05	9.510988e-05
310           	5.950042e-05	4.343998e-05	9.087692e-05	9.134839e-05
311           	5.242507e-05	4.400876e-05	9.529299e-05	9.517881e-05
312           	5.362784e-05	4.273809e-05	8.989373e-05	9.140230e-05
313           	4.596215e-05	4.263975e-05	8.838807e-05	8.740035e-05
314           	6.336704e-05	4.155255e-05	8.645119e-05	8.352569e-05
315           	4.679995e-05	4.307545e-05	8.764190e-05	8.935174e-05
316           	5.142351e-05	4.222593e-05	8.395117e-05	8.302765e-05
317           	4.519507e-05	4.121506e-05	8.411719e-05	8.547885e-05
318           	5.123994e-05	4.001554e-05	8.099277e-05	8.336696e-05
319           	4.569676e-05	4.121041e-05	8.097544e-05	8.131481e-05
320           	4.729914e-05	3.941037e-05	7.769063e-05	7.828502e-05
321           	5.030472e-05	3.983903e-05	7.784914e-05	7.848555e-05
322           	4.892943e-05	4.007807e-05	7.729862e-05	7.785599e-05
323           	4.352837e-05	4.026426e-05	7.786123e-05	7.615711e-05
324           	4.816092e-05	3.844011e-05	7.642283e-05	7.665349e-05
325           	4.139696e-05	3.894666e-05	7.538085e-05	7.535648e-05
326           	5.553690e-05	3.780585e-05	7.337332e-05	7.304208e-05
327           	4.284513e-05	3.947309e-05	7.628165e-05	7.695760e-05
328           	4.966963e-05	3.842780e-05	7.326063e-05	7.253378e-05
329           	4.219668e-05	3.757468e-05	7.543074e-05	7.615008e-05
330           	4.305725e-05	3.529038e-05	7.055067e-05	7.122458e-05
331           	4.018283e-05	3.521487e-05	6.995898e-05	6.814411e-05
332           	4.712924e-05	3.410645e-05	7.037305e-05	6.831853e-05
333           	4.118267e-05	3.432157e-05	6.835673e-05	6.971371e-05
334           	4.652150e-05	3.312879e-05	6.833331e-05	6.851597e-05
335           	3.847010e-05	3.417080e-05	6.897431e-05	7.086525e-05
336           	4.143776e-05	3.287243e-05	6.455609e-05	6.605881e-05
337           	4.044042e-05	3.316510e-05	6.497284e-05	6.649080e-05
338           	3.988562e-05	3.261958e-05	6.343938e-05	6.538130e-05
339           	3.537541e-05	3.251914e-05	6.280734e-05	6.343151e-05
340           	4.211582e-05	3.023955e-05	6.111527e-05	6.194466e-05
341           	3.377677e-05	3.146562e-05	6.060787e-05	6.184013e-05
342           	3.912622e-05	2.989372e-05	5.919396e-05	6.204517e-05
343           	3.918864e-05	2.954660e-05	5.822581e-05	6.077053e-05
344           	3.940837e-05	2.963236e-05	6.019050e-05	6.102603e-05
345           	3.649002e-05	3.033064e-05	6.058814e-05	6.062126e-05
346           	3.934731e-05	2.830740e-05	6.136226e-05	6.234140e-05
347           	3.561480e-05	2.832604e-05	6.079013e-05	6.189164e-05
348           	4.021453e-05	2.848158e-05	5.731611e-05	5.834454e-05
349           	3.785774e-05	2.925067e-05	5.633266e-05	5.840842e-05
350           	3.891062e-05	2.824115e-05	5.727739e-05	5.928129e-05
351           	3.706091e-05	2.786694e-05	5.651631e-05	6.042188e-05
352           	4.060024e-05	2.819434e-05	5.640472e-05	5.867675e-05
353           	3.595793e-05	2.825613e-05	5.929545e-05	6.117411e-05
354           	4.030091e-05	2.752290e-05	5.741804e-05	6.104467e-05
355           	3.730499e-05	2.851954e-05	5.687159e-05	6.032374e-05
356           	3.893057e-05	2.852607e-05	5.869028e-05	6.166211e-05
357           	3.737517e-05	2.856669e-05	6.197350e-05	6.566368e-05
358           	4.908319e-05	2.882555e-05	6.210930e-05	6.541655e-05
359           	3.887748e-05	3.064322e-05	6.731183e-05	7.497991e-05
360           	4.654425e-05	2.966199e-05	6.696247e-05	7.273077e-05
361           	4.037914e-05	3.049007e-05	6.818007e-05	7.474385e-05
362           	4.257218e-05	2.838077e-05	7.031890e-05	7.889192e-05
363           	5.260934e-05	2.886948e-05	6.344067e-05	6.717434e-05
364           	4.653637e-05	3.080367e-05	6.981865e-05	7.484356e-05
365           	4.121936e-05	3.024792e-05	6.941002e-05	7.704222e-05
366           	4.561755e-05	2.837478e-05	6.847753e-05	7.340913e-05
367           	3.604024e-05	2.832409e-05	6.627972e-05	7.198804e-05
368           	3.972910e-05	2.691909e-05	6.251003e-05	6.785785e-05
369           	5.100133e-05	2.687245e-05	6.105725e-05	6.585828e-05
370           	4.454195e-05	2.846029e-05	6.736454e-05	7.151622e-05
371           	3.791102e-05	3.019297e-05	6.566671e-05	7.017549e-05
372           	4.286960e-05	2.764127e-05	6.604686e-05	6.862459e-05
373           	3.697106e-05	2.817526e-05	6.778372e-05	7.208616e-05
374           	4.735680e-05	2.805641e-05	6.394073e-05	6.947514e-05
375           	4.077857e-05	2.872388e-05	6.596791e-05	7.184784e-05
376           	7.547249e-05	2.863531e-05	6.680117e-05	7.713545e-05
377           	5.121832e-05	3.579040e-05	8.197678e-05	9.767341e-05
378           	5.304830e-05	3.287895e-05	8.153219e-05	9.734090e-05
379           	4.621555e-05	2.980588e-05	7.949370e-05	9.382671e-05
380           	4.821276e-05	2.984517e-05	7.519645e-05	8.876493e-05
381           	4.138499e-05	2.950116e-05	7.295197e-05	8.125603e-05
382           	5.964902e-05	2.887807e-05	7.011997e-05	7.658856e-05
383           	4.552564e-05	3.192156e-05	7.519021e-05	8.388549e-05
384           	4.860240e-05	3.028671e-05	7.895438e-05	8.999875e-05
385           	4.557866e-05	3.030995e-05	7.385291e-05	8.584487e-05
386           	5.925818e-05	3.014140e-05	7.171815e-05	8.485141e-05
387           	4.689100e-05	3.181250e-05	7.678172e-05	8.962287e-05
388           	5.183164e-05	3.118073e-05	7.590699e-05	9.022874e-05
389           	4.362802e-05	3.116681e-05	7.763062e-05	9.205368e-05
390           	4.319501e-05	2.924786e-05	7.477983e-05	8.833488e-05
391           	4.167010e-05	2.877261e-05	7.024514e-05	8.216391e-05
392           	4.569110e-05	2.741359e-05	7.045401e-05	8.096224e-05
393           	4.001044e-05	2.803150e-05	6.964764e-05	8.187107e-05
394           	4.428189e-05	2.674333e-05	6.786361e-05	7.780404e-05
395           	3.687677e-05	2.781953e-05	6.863071e-05	8.054638e-05
396           	4.284691e-05	2.601887e-05	6.663288e-05	7.476127e-05
397           	3.615455e-05	2.734266e-05	6.928166e-05	7.682367e-05
398           	5.877168e-05	2.637440e-05	6.721360e-05	7.558166e-05
399           	4.416826e-05	3.126380e-05	7.707583e-05	8.507311e-05
400           	4.982787e-05	2.880228e-05	7.763598e-05	8.560072e-05
401           	4.326410e-05	2.889602e-05	7.689385e-05	8.521216e-05
402           	4.587131e-05	2.832377e-05	7.340228e-05	8.201156e-05
403           	4.198467e-05	2.901658e-05	7.334585e-05	7.691117e-05
404           	4.966339e-05	2.911684e-05	7.682482e-05	8.035674e-05
405           	4.471247e-05	3.044492e-05	7.464813e-05	8.211850e-05
406           	5.712310e-05	2.924484e-05	8.187161e-05	9.132146e-05
407           	4.724884e-05	3.298754e-05	8.033262e-05	9.401214e-05
408           	5.134923e-05	3.167010e-05	8.152767e-05	9.392102e-05
409           	4.537967e-05	3.110620e-05	8.587992e-05	1.001692e-04
410           	4.572114e-05	3.086578e-05	7.926374e-05	9.234414e-05
411           	5.178848e-05	2.902653e-05	7.822353e-05	8.921041e-05
412           	4.943468e-05	3.046305e-05	7.712578e-05	8.631148e-05
413           	4.183456e-05	2.979004e-05	7.673404e-05	8.886371e-05
414           	4.613860e-05	2.821711e-05	7.570402e-05	8.315373e-05
415           	3.873676e-05	2.859883e-05	7.468019e-05	8.176790e-05
416           	4.648224e-05	2.787940e-05	7.153363e-05	7.710376e-05
417           	4.373399e-05	2.792039e-05	7.285638e-05	7.605003e-05
418           	4.749769e-05	2.676582e-05	7.069882e-05	7.562382e-05
419           	5.228950e-05	2.755940e-05	7.060490e-05	7.707932e-05
420           	4.853388e-05	2.860049e-05	7.540324e-05	7.904891e-05
421           	4.070706e-05	2.895054e-05	7.020637e-05	7.353180e-05
422           	4.492319e-05	2.705097e-05	6.984415e-05	7.259808e-05
423           	3.950877e-05	2.769079e-05	7.035517e-05	7.340726e-05
424           	4.691389e-05	2.743187e-05	6.779289e-05	7.385674e-05
425           	4.431300e-05	2.940315e-05	7.152433e-05	7.759382e-05
426           	6.319440e-05	2.886219e-05	7.846364e-05	8.944517e-05
427           	4.765751e-05	3.365240e-05	8.239130e-05	9.884530e-05
428           	5.241026e-05	3.229981e-05	8.397985e-05	9.654353e-05
429           	4.626382e-05	3.077685e-05	8.295812e-05	9.714392e-05
430           	4.643610e-05	3.045420e-05	7.828150e-05	9.171909e-05
431           	4.533688e-05	2.796272e-05	7.564160e-05	8.594286e-05
432           	4.670369e-05	2.787430e-05	6.956646e-05	7.795981e-05
433           	5.099537e-05	2.792124e-05	6.923464e-05	7.849098e-05
434           	4.806329e-05	2.839205e-05	7.273696e-05	8.041573e-05
435           	4.257376e-05	2.999457e-05	7.164638e-05	7.884261e-05
436           	4.790356e-05	2.852183e-05	7.353785e-05	8.184145e-05
437           	4.040753e-05	2.901594e-05	7.535009e-05	8.455916e-05
438           	5.402462e-05	2.885060e-05	7.137408e-05	8.214284e-05
439           	4.098712e-05	3.061134e-05	7.559030e-05	8.695546e-05
440           	4.914358e-05	2.817373e-05	7.575111e-05	8.837187e-05
441           	3.997952e-05	2.862602e-05	7.322609e-05	8.490186e-05
442           	4.953240e-05	2.711041e-05	6.872721e-05	7.832932e-05
443           	3.880261e-05	2.802863e-05	6.715244e-05	7.473589e-05
444           	4.291344e-05	2.675066e-05	6.721290e-05	7.534609e-05
445           	3.899770e-05	2.608929e-05	6.549367e-05	7.206606e-05
446           	4.035802e-05	2.398880e-05	6.208041e-05	6.614620e-05