/*--------------------------------*- C++ -*----------------------------------*\
  =========                 |
  \\      /  F ield         | OpenFOAM: The Open Source CFD Toolbox
   \\    /   O peration     | Website:  https://openfoam.org
    \\  /    A nd           | Version:  7
     \\/     M anipulation  |
\*---------------------------------------------------------------------------*/
FoamFile
{
    version     2.0;
    format      ascii;
    class       volScalarField;
    location    "500";
    object      k;
}
// * * * * * * * * * * * * * * * * * * * * * * * * * * * * * * * * * * * * * //

dimensions      [0 2 -2 0 0 0 0];

internalField   nonuniform List<scalar> 
27370
(
348.946
348.705
350.048
309.662
17.8262
34.7857
50.6593
65.3293
76.9061
84.8991
89.8019
92.343
93.17
92.806
91.3793
89.2593
86.8651
84.3051
81.6572
78.9766
76.3023
73.6642
71.0909
68.6467
66.642
348.686
347.41
348.329
324.556
21.4622
46.9278
65.1738
77.679
86.095
91.4197
94.384
95.5802
95.4851
94.6965
93.0352
90.4897
87.7825
84.9871
82.1589
79.3387
76.5556
73.8323
71.1919
68.6949
66.6512
348.21
345.454
344.8
335.398
2.50208
57.7258
84.0799
96.0294
101.574
103.937
104.505
103.929
102.55
100.593
98.4916
95.8565
92.6151
89.3773
86.1731
83.0276
79.9595
76.982
74.1053
71.3437
68.7502
66.6347
347.638
343.225
338.309
332.283
298.641
20.7008
118.742
128.727
130.265
128.909
126.085
122.538
118.682
114.726
110.763
106.833
103.099
99.1236
95.1047
91.2521
87.5623
84.0326
80.6599
77.4404
74.3711
71.4556
68.7386
66.5281
347.066
341.126
334.432
328.226
311.827
279.85
232.665
211.528
193.29
178.466
166.339
156.045
146.996
138.868
131.486
124.741
118.545
112.83
107.528
102.177
97.4366
92.9948
88.8284
84.9142
81.2314
77.7619
74.4918
71.4145
68.565
66.2476
346.555
339.35
331.226
320.655
306.052
290.106
265.102
239.027
218.874
201.066
185.538
171.975
160.037
149.443
139.972
131.458
123.765
116.788
110.453
104.579
99.2101
94.2626
89.6829
85.4307
81.4723
77.7784
74.3255
71.0994
68.1254
65.699
346.122
337.878
328.636
317.512
303.611
286.333
266.952
246.741
227.573
209.91
193.907
179.529
166.641
155.082
144.693
135.333
126.878
119.222
112.273
105.918
100.112
94.7909
89.8969
85.3825
81.2067
77.3343
73.736
70.3911
67.3147
64.7849
345.762
336.615
326.381
314.555
300.678
284.593
266.91
248.521
230.467
213.348
197.461
182.905
169.667
157.671
146.816
136.994
128.101
120.038
112.717
106.046
99.9593
94.3932
89.2904
84.6007
80.2801
76.2895
72.5962
69.1749
66.0295
63.4069
345.457
335.441
324.167
311.428
297.097
281.234
264.264
246.793
229.513
212.929
197.342
182.899
169.634
157.52
146.499
136.488
127.4
119.148
111.649
104.822
98.5969
92.9116
87.7084
82.9366
78.551
74.5112
70.7824
67.3362
64.165
61.4638
345.19
334.21
321.659
307.662
292.419
276.168
259.274
242.186
225.376
209.226
193.988
179.803
166.712
154.705
143.744
133.763
124.685
116.433
108.928
102.097
95.8715
90.19
84.9957
80.2386
75.8737
71.8601
68.1626
64.7508
61.6077
58.8449
344.944
332.713
318.369
302.563
285.893
268.773
251.54
234.506
217.979
202.21
187.372
173.567
160.814
149.105
138.404
128.65
119.773
111.699
104.356
97.673
91.5856
86.034
80.963
76.3237
72.0722
68.1682
64.5772
61.2669
58.2197
55.417
344.702
330.553
313.401
294.906
276.196
257.81
239.995
222.887
206.617
191.291
176.983
163.727
151.514
140.319
130.096
120.783
112.31
104.608
97.6057
91.2375
85.4409
80.1589
75.3387
70.9335
66.9011
63.2022
59.8055
56.6736
53.8108
50.9992
344.434
326.755
304.748
282.204
260.796
240.933
222.568
205.544
189.761
175.144
161.656
149.253
137.887
127.506
118.049
109.449
101.637
94.544
88.1037
82.2528
76.9332
72.0914
67.6779
63.6489
59.9656
56.5895
53.4972
50.6343
48.077
45.3087
343.977
318.197
287.102
258.753
234.369
213.44
195.165
178.927
164.322
151.066
139.004
128.02
118.024
108.938
100.69
93.2095
86.4303
80.2876
74.7204
69.6714
65.0881
60.9229
57.1315
53.6749
50.5202
47.6276
44.9957
42.5172
40.4376
37.8194
341.91
291.587
243.968
209.576
184.12
164.494
148.512
134.997
123.236
112.795
103.432
94.9925
87.3738
80.4763
74.2372
68.5983
63.504
58.9017
54.7417
50.9786
47.5699
44.4789
41.6699
39.1127
36.7861
34.6408
32.7355
30.826
29.4767
27.2716
317.06
174.861
118.147
91.1382
75.6272
65.5163
58.1275
52.2838
47.4098
43.1966
39.4815
36.169
33.1994
30.5383
28.1426
25.982
24.0324
22.2727
20.6836
19.2467
17.9476
16.7674
15.7026
14.7199
13.8541
13.0064
12.3339
11.548
11.0608
10.2174
348.686
347.413
348.338
324.454
20.792
46.4939
64.97
77.588
86.0526
91.3986
94.3725
95.5736
95.4811
94.6936
93.0327
90.4878
87.781
84.9859
82.158
79.3379
76.555
73.8318
71.1915
68.6945
66.6508
348.444
346.36
346.74
330.72
31.2915
61.225
78.2086
88.0229
93.8075
97.0167
98.4148
98.4912
97.5976
96.4271
94.5344
91.6195
88.6307
85.6195
82.6245
79.6743
76.7894
73.986
71.2823
68.735
66.6542
348.005
344.658
343.542
333.588
104.623
17.1387
78.9661
97.782
105.684
108.716
109.301
108.543
106.962
104.828
102.305
99.9219
97.1082
93.5698
90.1009
86.7159
83.4281
80.2476
77.1809
74.2333
71.4151
68.7763
66.6268
347.479
342.632
337.197
331.663
306.46
92.4665
60.1254
138.896
140.635
138.339
134.755
130.506
125.959
121.355
116.818
112.397
108.106
104.194
100.094
95.8549
91.8266
87.9957
84.3524
80.8883
77.5949
74.466
71.5024
68.7464
66.5059
346.95
340.726
333.753
327.596
312.052
283.465
243.748
220.085
199.879
183.765
170.608
159.494
149.799
141.155
133.354
126.262
119.777
113.821
108.32
102.883
97.9909
93.4226
89.1515
85.1508
81.3968
77.869
74.551
71.4343
68.5524
66.2094
346.473
339.082
330.774
320.144
305.813
290.652
266.827
241.42
221.405
203.519
187.797
173.991
161.801
150.964
141.27
132.552
124.678
117.541
111.064
105.069
99.5969
94.5608
89.906
85.5904
81.5787
77.8401
74.3499
71.0928
68.0928
65.6451
346.066
337.697
328.336
317.161
303.356
286.415
267.472
247.664
228.715
211.131
195.113
180.663
167.676
156.003
145.499
136.027
127.466
119.712
112.675
106.241
100.365
94.9831
90.0362
85.4761
81.2613
77.3557
73.7293
70.3607
67.2641
64.7168
345.723
336.491
326.175
314.305
300.462
284.521
267.047
248.874
230.979
213.95
198.098
183.535
170.262
158.215
147.301
137.417
128.462
120.341
112.964
106.242
100.109
94.5014
89.3621
84.6404
80.292
76.2775
72.5636
69.1247
65.964
63.3274
345.43
335.353
324.019
311.24
296.912
281.111
264.243
246.892
229.714
213.2
197.652
183.223
169.952
157.819
146.77
136.726
127.604
119.316
111.783
104.924
98.6687
92.9562
87.7285
82.9348
78.53
74.4733
70.7299
67.2711
64.0888
61.3764
345.172
334.147
321.549
307.515
292.258
276.027
259.182
242.159
225.412
209.312
194.107
179.941
166.856
154.845
143.872
133.875
124.779
116.507
108.983
102.132
95.8877
90.1888
84.9786
80.2071
75.8292
71.8042
68.0966
64.6761
61.5252
58.7537
344.931
332.667
318.285
302.443
285.75
268.628
251.413
234.413
217.923
202.188
187.376
173.589
160.847
149.141
138.438
128.679
119.794
111.71
104.357
97.6628
91.5646
86.0025
80.9217
76.2733
72.0135
68.102
64.5044
61.1883
58.136
55.3265
344.694
330.52
313.335
294.804
276.066
257.666
239.852
222.759
206.51
191.207
176.919
163.68
151.479
140.292
130.073
120.76
112.286
104.581
97.5742
91.2007
85.3985
80.1109
75.2851
70.8745
66.8371
63.1336
59.7327
56.597
53.7312
50.9143
344.429
326.731
304.696
282.118
260.677
240.793
222.419
205.398
189.627
175.027
161.556
149.168
137.815
127.445
117.995
109.4
101.591
94.4987
88.0579
82.2056
76.8838
72.0394
67.6232
63.5912
59.9051
56.5262
53.4314
50.5659
48.0072
45.2346
343.974
318.181
287.06
258.678
234.26
213.306
195.017
178.779
164.181
150.938
138.892
127.923
117.941
108.867
100.628
93.1549
86.3809
80.2416
74.6763
69.628
65.0446
60.8787
57.0861
53.628
50.4717
47.5774
44.944
42.4633
40.3836
37.7613
341.909
291.576
243.934
209.511
184.024
164.375
148.381
134.864
123.11
112.68
103.332
94.9073
87.302
80.417
74.1882
68.5574
63.469
58.8709
54.7138
50.9522
47.5441
44.4531
41.6435
39.0855
36.7579
34.6111
32.7051
30.7931
29.4451
27.2354
317.06
174.856
118.127
91.1044
75.5796
65.4593
58.0654
52.2217
47.3516
43.1446
39.437
36.1321
33.1695
30.514
28.1231
25.9664
24.0199
22.2625
20.675
19.2392
17.9406
16.7606
15.6959
14.7128
13.8469
12.9984
12.3263
11.5381
11.0533
10.2069
348.212
345.461
344.817
335.455
3.36931
57.5193
83.7263
95.7935
101.438
103.86
104.46
103.901
102.533
100.581
98.4832
95.8501
92.6102
89.3734
86.17
83.0251
79.9574
76.9802
74.1038
71.3424
68.7491
66.6336
348.006
344.661
343.551
333.584
95.2027
15.563
78.8235
97.6131
105.563
108.642
109.255
108.516
106.944
104.817
102.298
99.9166
97.1043
93.5668
90.0985
86.7139
83.4265
80.2463
77.1797
74.2323
71.4142
68.7756
66.6261
347.642
343.274
341.03
333.004
292.478
108.764
122.556
125.848
125.584
123.539
120.577
117.173
113.57
109.882
106.164
102.834
99.2575
95.2175
91.3523
87.6526
84.1145
80.7344
77.5081
74.4329
71.5122
68.791
66.5786
347.194
341.601
335.323
329.685
311.066
263.325
198.004
182.995
173.766
163.57
154.805
147.101
140.038
133.448
127.281
121.509
116.101
111.019
106.441
101.761
97.1497
92.8176
88.7393
84.8949
81.2675
77.8416
74.6052
71.5544
68.7272
66.4312
346.741
340.008
332.451
322.306
311.71
288.429
259.211
232.812
211.178
193.425
178.691
166.194
155.337
145.73
137.124
129.355
122.298
115.86
109.952
104.102
98.9451
94.1549
89.6983
85.5435
81.6622
78.0294
74.6248
71.4369
68.4959
66.1053
346.325
338.593
329.941
319.249
305.147
286.957
266.186
245.109
225.371
207.474
191.519
177.366
164.787
153.559
143.495
134.436
126.253
118.84
112.116
105.909
100.254
95.0616
90.273
85.844
81.7363
77.9172
74.3598
71.0466
67.9993
65.5118
345.962
337.363
327.777
316.507
302.823
286.426
268.109
249.073
230.533
213.125
197.118
182.575
169.433
157.576
146.878
137.214
128.471
120.547
113.354
106.782
100.783
95.2919
90.2505
85.6087
81.3239
77.3587
73.6818
70.2707
67.1373
64.5575
345.651
336.257
325.784
313.823
300.021
284.311
267.173
249.384
231.776
214.919
199.14
184.578
171.256
159.127
148.115
138.125
129.064
120.838
113.364
106.552
100.337
94.6569
89.4528
84.6741
80.2762
76.2188
72.4683
68.9981
65.81
63.1472
345.38
335.186
323.734
310.87
296.534
280.827
264.127
246.983
229.986
213.602
198.13
183.731
170.456
158.294
147.198
137.1
127.918
119.57
111.978
105.062
98.7551
92.9949
87.7241
82.8921
78.4534
74.367
70.5979
67.117
63.9151
61.182
345.137
334.026
321.333
307.218
291.924
275.718
258.95
242.035
225.398
209.388
194.246
180.116
167.046
155.032
144.043
134.021
124.895
116.59
109.032
102.148
95.8719
90.1433
84.9058
80.1095
75.7095
71.6648
67.9401
64.5047
61.3406
58.553
344.907
332.577
318.117
302.198
285.451
268.314
251.123
234.175
217.748
202.073
187.31
173.558
160.838
149.142
138.44
128.673
119.777
111.678
104.308
97.5967
91.4809
85.9018
80.8049
76.1417
71.8683
67.9446
64.3362
61.0106
57.9501
55.1285
344.677
330.454
313.202
294.597
275.795
257.356
239.535
222.46
206.246
190.982
176.732
163.525
151.348
140.179
129.97
120.662
112.188
104.48
97.4678
91.0873
85.2773
79.9814
75.1474
70.7287
66.6838
62.9734
59.5662
56.4249
53.5547
50.7288
344.418
326.684
304.59
281.939
260.43
240.494
222.095
205.074
189.32
174.747
161.307
148.948
137.622
127.273
117.84
109.257
101.455
94.3673
87.9284
82.076
76.7527
71.9057
67.4863
63.4508
59.7611
56.3787
53.2806
50.4118
47.8514
45.0723
343.969
318.149
286.975
258.523
234.036
213.027
194.705
178.457
163.869
150.647
138.629
127.688
117.733
108.683
100.464
93.0074
86.2455
80.1149
74.5556
69.5111
64.9297
60.7643
56.9714
53.5123
50.3546
47.4585
44.8236
42.3405
40.2606
37.6335
341.907
291.557
243.867
209.383
183.833
164.135
148.11
134.585
122.839
112.429
103.106
94.7089
87.129
80.2684
74.0603
68.4464
63.3712
58.7829
54.6327
50.8759
47.4708
44.3813
41.5722
39.0139
36.6856
34.5374
32.6306
30.7162
29.3684
27.1551
317.06
174.847
118.092
91.042
75.4899
65.3493
57.9432
52.097
47.2319
43.035
39.3403
36.0491
33.0995
30.4546
28.0731
25.9245
23.9844
22.2319
20.6481
19.2149
17.9181
16.7391
15.675
14.6919
13.826
12.9768
12.3047
11.5154
11.0303
10.1829
347.64
343.233
338.33
332.32
298.385
20.3816
118.45
128.511
130.066
128.75
125.972
122.461
118.63
114.69
110.737
106.814
103.086
99.1134
95.0966
91.2455
87.5568
84.028
80.6561
77.4372
74.3683
71.4532
68.7365
66.5261
347.48
342.638
337.211
331.689
306.414
93.9372
59.218
138.599
140.462
138.199
134.643
130.424
125.902
121.315
116.79
112.377
108.091
104.184
100.087
95.8485
91.8214
87.9914
84.3488
80.8852
77.5923
74.4637
71.5004
68.7446
66.5043
347.194
341.603
335.329
329.697
311.073
262.961
197.886
182.873
173.68
163.507
154.753
147.058
140.005
133.423
127.262
121.496
116.091
111.012
106.435
101.757
97.1463
92.8147
88.7369
84.8929
81.2658
77.8401
74.6039
71.5533
68.7262
66.4302
346.842
340.363
333.096
323.12
312.024
286.464
252.553
223.888
202.822
186.022
172.432
161.062
151.202
142.437
134.536
127.353
120.787
114.754
109.244
103.709
98.6617
93.9653
89.5855
85.4934
81.6627
78.0704
74.6983
71.5368
68.618
66.248
346.477
339.119
330.891
320.503
306.159
291.171
267.368
243.474
222.084
203.568
187.668
173.923
161.896
151.248
141.734
133.176
125.438
118.413
112.004
105.52
100.045
94.9835
90.2984
85.9523
81.9116
78.1466
74.6327
71.3544
68.3376
65.8834
346.134
337.967
328.873
317.988
304.292
287.319
268.159
248.378
229.32
211.647
195.592
181.146
168.184
156.544
146.07
136.623
128.082
120.342
113.323
106.862
100.985
95.5992
90.6449
86.074
81.8463
77.9261
74.2842
70.9003
67.7924
65.2517
345.825
336.919
327.029
315.593
302.044
286.195
268.644
250.379
232.365
215.234
199.309
184.705
171.414
159.362
148.447
138.563
129.606
121.48
114.099
107.358
101.208
95.5835
90.425
85.6819
81.3101
77.2706
73.5308
70.0664
66.8868
64.2634
345.553
335.937
325.24
313.131
299.345
283.871
267.121
249.763
232.505
215.88
200.218
185.683
172.321
160.109
148.988
138.878
129.692
121.344
113.753
106.833
100.519
94.7498
89.4664
84.6181
80.1594
76.0497
72.2543
68.7459
65.5239
62.8261
345.311
334.952
323.324
310.322
295.941
280.316
263.801
246.892
230.114
213.897
198.53
184.183
170.917
158.73
147.588
137.429
128.18
119.763
112.102
105.121
98.7521
92.9354
87.6135
82.7358
78.2568
74.1354
70.3361
66.8292
63.6039
60.8433
345.087
333.85
321.014
306.768
291.394
275.186
258.49
241.694
225.185
209.288
194.231
180.154
167.112
155.103
144.102
134.057
124.901
116.561
108.967
102.047
95.7357
89.974
84.7059
79.8819
75.4572
71.3907
67.6471
64.1954
61.0167
58.2082
344.872
332.445
317.862
301.817
284.97
267.784
250.598
233.698
217.341
201.738
187.039
173.336
160.651
148.976
138.282
128.516
119.612
111.502
104.117
97.3896
91.2573
85.6618
80.5492
75.8712
71.5845
67.6489
64.0301
60.6955
57.6274
54.7905
344.654
330.354
312.996
294.27
275.356
256.84
238.983
221.914
205.732
190.514
176.312
163.148
151.01
139.869
129.681
120.388
111.922
104.217
97.2051
90.8223
85.0083
79.7074
74.868
70.4438
66.3936
62.6781
59.2666
56.1212
53.2488
50.4122
344.403
326.611
304.424
281.657
260.031
240.002
221.547
204.507
188.763
174.219
160.817
148.499
137.212
126.897
117.492
108.932
101.148
94.0734
87.6439
81.7978
76.4785
71.6339
67.2156
63.1803
59.4903
56.1072
53.0086
50.1386
47.5796
44.7934
343.961
318.1
286.844
258.282
233.679
212.574
194.188
177.913
163.325
150.125
138.141
127.24
117.324
108.31
100.124
92.6944
85.9551
79.8426
74.2975
69.2638
64.6905
60.5311
56.7425
53.2863
50.1307
47.2359
44.6023
42.1189
40.0423
37.4106
341.904
291.527
243.765
209.187
183.538
163.757
147.677
134.129
122.384
111.994
102.704
94.3428
86.7992
79.9744
73.7982
68.2114
63.1587
58.5884
54.4524
50.7064
47.3094
44.2259
41.4211
38.8657
36.5395
34.3922
32.4871
30.5711
29.2273
27.0094
317.059
174.834
118.043
90.9516
75.3576
65.1843
57.7563
51.9017
47.0393
42.8534
39.1745
35.9012
32.9695
30.3398
27.9725
25.8362
23.9065
22.1624
20.5853
19.1572
17.8644
16.6883
15.6263
14.6444
13.78
12.9304
12.2603
11.4677
10.9897
10.1334
347.067
341.132
334.447
328.251
311.854
279.727
232.142
211.257
193.121
178.337
166.229
155.951
146.919
138.808
131.44
124.705
118.517
112.809
107.511
102.164
97.4257
92.9857
88.8207
84.9076
81.2257
77.7571
74.4876
71.4108
68.5617
66.2445
346.951
340.731
333.765
327.617
312.081
284.202
243.434
219.707
199.744
183.665
170.523
159.42
149.737
141.106
133.316
126.232
119.754
113.803
108.305
102.872
97.9815
93.4148
89.1448
85.1451
81.3919
77.8648
74.5473
71.4311
68.5495
66.2067
346.741
340.011
332.458
322.318
311.728
288.397
259.143
232.75
211.122
193.374
178.645
166.152
155.301
145.7
137.1
129.335
122.282
115.847
109.942
104.094
98.9386
94.1493
89.6936
85.5394
81.6586
78.0262
74.622
71.4344
68.4937
66.1032
346.478
339.121
330.893
320.507
306.163
291.168
267.355
243.459
222.069
203.552
187.651
173.907
161.882
151.236
141.724
133.168
125.431
118.407
111.999
105.516
100.041
94.9806
90.2959
85.9501
81.9097
78.145
74.6312
71.3531
68.3364
65.8823
346.197
338.187
329.272
318.535
304.904
292.037
271.711
250.434
230.192
211.789
195.393
180.863
167.963
156.459
146.15
136.872
128.491
120.899
114.001
106.795
101.003
95.667
90.7489
86.2065
82.0016
78.0996
74.4718
71.099
68.0014
65.4747
345.924
337.277
327.694
316.528
303.085
287.038
269.198
250.615
232.346
215.057
199.066
184.466
171.222
159.241
148.407
138.605
129.725
121.672
114.366
107.654
101.555
95.974
90.8506
86.1348
81.7838
77.7597
74.0307
70.5737
67.4024
64.8008
345.671
336.408
326.155
314.478
300.979
285.557
268.684
251.123
233.656
216.862
201.086
186.486
173.099
160.889
149.784
139.699
130.54
122.219
114.655
107.748
101.449
95.6916
90.4159
85.5706
81.1109
76.9965
73.1934
69.6756
66.4484
63.7752
345.44
335.555
324.574
312.244
298.404
283.095
266.68
249.72
232.813
216.444
200.931
186.457
173.086
160.816
149.606
139.39
130.091
121.63
113.928
106.904
100.496
94.6402
89.2799
84.3636
79.8459
75.6854
71.8469
68.3019
65.0467
62.3092
345.227
334.66
322.8
309.591
295.096
279.493
263.118
246.417
229.852
213.811
198.57
184.295
171.058
158.867
147.694
137.49
128.187
119.711
111.989
104.949
98.5253
92.6575
87.2893
82.3702
77.8549
73.7022
69.8761
66.3466
63.1005
60.3094
345.026
333.625
320.59
306.147
290.625
274.355
257.685
240.979
224.588
208.805
193.842
179.835
166.837
154.851
143.855
133.802
124.629
116.267
108.647
101.7
95.3622
89.5752
84.2837
79.4384
74.9948
70.912
67.1546
63.6914
60.5022
57.6713
344.828
332.27
317.514
301.279
284.263
266.965
249.736
232.852
216.548
201.014
186.384
172.742
160.107
148.469
137.801
128.05
119.154
111.047
103.66
96.9285
90.7901
85.1878
80.0683
75.3838
71.0911
67.1504
63.5276
60.1898
57.1196
54.2674
344.622
330.219
312.709
293.799
274.706
256.049
238.108
221.009
204.839
189.659
175.508
162.397
150.31
139.215
129.065
119.802
111.36
103.674
96.6767
90.3046
84.4985
79.2036
74.3686
69.948
65.9007
62.188
58.7791
55.6362
52.7681
49.9223
344.383
326.511
304.189
281.247
259.439
239.256
220.694
203.6
187.845
173.321
159.959
147.69
136.454
126.188
116.829
108.308
100.558
93.5124
87.1068
81.2807
75.9779
71.1469
66.7399
62.7143
59.0326
55.6567
52.5648
49.7001
47.1495
44.359
343.949
318.031
286.656
257.933
233.157
211.9
193.404
177.068
162.459
149.273
137.323
126.468
116.603
107.641
99.5022
92.1161
85.4148
79.3352
73.8181
68.808
64.2545
60.1118
56.3371
52.8928
49.7473
46.8609
44.2357
41.7573
39.6912
37.0577
341.901
291.486
243.626
208.914
183.121
163.216
147.044
133.445
121.685
111.309
102.05
93.7315
86.2333
79.4559
73.3243
67.7777
62.76
58.2196
54.1088
50.3838
47.0042
43.935
41.1421
38.5964
36.2787
34.1376
32.2399
30.3251
28.9947
26.7677
317.059
174.817
117.98
90.8337
75.1816
64.9595
57.4957
51.6224
46.756
42.578
38.9149
35.6616
32.7512
30.1413
27.7928
25.6737
23.7592
22.0282
20.4621
19.0432
17.7579
16.5879
15.531
14.5531
13.6923
12.8442
12.1812
11.3704
10.975
9.99202
346.556
339.355
331.236
320.672
306.067
290.09
265.04
238.968
218.811
201.004
185.478
171.919
159.987
149.399
139.935
131.426
123.739
116.766
110.434
104.563
99.1969
94.2513
89.6732
85.4222
81.465
77.7719
74.3198
71.0943
68.1208
65.6947
346.474
339.086
330.783
320.157
305.828
290.649
266.772
241.38
221.359
203.47
187.749
173.945
161.759
150.927
141.238
132.525
124.656
117.522
111.048
105.056
99.5851
94.5508
89.8973
85.5828
81.572
77.8342
74.3447
71.0882
68.0886
65.6412
346.326
338.596
329.946
319.258
305.156
286.952
266.169
245.085
225.343
207.442
191.486
177.335
164.757
153.533
143.472
134.416
126.236
118.825
112.103
105.899
100.245
95.0536
90.266
85.8378
81.7309
77.9124
74.3556
71.0429
67.9959
65.5086
346.134
337.968
328.876
317.993
304.296
287.318
268.151
248.367
229.305
211.631
195.575
181.129
168.168
156.529
146.057
136.611
128.071
120.333
113.315
106.855
100.979
95.5938
90.6401
86.0698
81.8426
77.9228
74.2812
70.8976
67.79
65.2495
345.924
337.278
327.695
316.529
303.087
287.037
269.196
250.611
232.341
215.051
199.06
184.459
171.216
159.235
148.401
138.599
129.721
121.668
114.362
107.651
101.552
95.9713
90.8482
86.1327
81.782
77.758
74.0291
70.5723
67.4011
64.7996
345.712
336.57
326.466
314.932
301.522
286.093
269.162
251.517
233.968
217.112
201.299
186.681
173.291
161.089
149.997
139.925
130.781
122.474
114.925
108.025
101.734
95.984
90.7139
85.8723
81.4144
77.3002
73.4961
69.9764
66.7488
64.0845
345.51
335.858
325.187
313.178
299.588
284.408
268.014
251.005
234.019
217.565
201.979
187.447
174.033
161.732
150.5
140.267
130.954
122.481
114.769
107.732
101.31
95.4421
90.0687
85.1385
80.606
76.43
72.5754
69.0145
65.7477
63.0233
345.318
335.123
323.794
311.154
297.145
281.872
265.666
249.006
232.399
216.272
200.925
186.543
173.204
160.919
149.662
139.379
130.003
121.46
113.677
106.577
100.097
94.1762
88.7572
83.7895
79.2274
75.0295
71.1598
67.589
64.3091
61.5316
345.134
334.317
322.156
308.652
293.94
278.251
261.921
245.355
228.958
213.077
197.965
183.782
170.602
158.437
147.267
137.049
127.721
119.213
111.458
104.383
97.926
92.027
86.6303
81.6862
77.1495
72.9789
69.1384
65.5976
62.34
59.519
344.955
333.349
320.049
305.32
289.551
273.122
256.394
239.714
223.399
207.713
192.846
178.92
165.988
154.05
143.087
133.054
123.891
115.533
107.912
100.962
94.6192
88.8266
83.5295
78.6794
74.2321
70.1469
66.3885
62.9254
59.7362
56.8847
344.774
332.047
317.054
300.541
283.262
265.759
248.406
231.477
215.189
199.706
185.144
171.572
159.004
147.427
136.81
127.101
118.24
110.16
102.796
96.0828
89.9597
84.3703
79.262
74.5876
70.3044
66.3727
62.7588
59.4298
56.3689
53.5047
344.583
330.042
312.318
293.141
273.775
254.887
236.784
219.597
203.403
188.244
174.14
161.091
149.071
138.043
127.955
118.748
110.357
102.714
95.7545
89.4156
83.6386
78.3691
73.5568
69.1563
65.1274
61.4314
58.0383
54.9097
52.0575
49.2076
344.357
326.376
303.862
280.667
258.589
238.166
219.425
202.222
186.42
171.899
158.572
146.359
135.19
124.994
115.702
107.245
99.5538
92.5607
86.202
80.4174
75.1513
70.3528
65.9748
61.9748
58.3163
54.9611
51.8885
49.0403
46.5095
43.7218
343.934
317.937
286.396
257.441
232.413
210.929
192.258
175.812
161.15
147.96
136.041
125.238
115.437
106.543
98.4729
91.1519
84.5108
78.4857
73.0172
68.0504
63.535
59.4259
55.6809
52.2628
49.1409
46.2751
43.6693
41.2064
39.1594
36.5353
341.895
291.432
243.437
208.542
182.547
162.459
146.145
132.458
120.657
110.28
101.049
92.7758
85.3323
78.6154
72.544
67.0542
62.0885
57.5948
53.5252
49.8364
46.4882
43.4465
40.6776
38.1526
35.8536
33.728
31.8457
29.9433
28.6209
26.4166
317.058
174.798
117.902
90.685
74.9544
64.6627
57.1441
51.2366
46.3549
42.1783
38.5281
35.2952
32.409
29.8231
27.4989
25.403
23.5099
21.7982
20.2491
18.845
17.5726
16.4137
15.3666
14.3967
13.5433
12.7022
12.0395
11.2563
10.7765
9.93561
346.123
337.882
328.643
317.522
303.619
286.328
266.933
246.71
227.535
209.868
193.864
179.486
166.601
155.045
144.66
135.304
126.853
119.2
112.254
105.901
100.097
94.7779
89.8855
85.3724
81.1978
77.3264
73.7289
70.3847
67.3089
64.7795
346.067
337.7
328.341
317.17
303.363
286.412
267.457
247.64
228.684
211.095
195.076
180.627
167.641
155.971
145.47
136.001
127.443
119.692
112.657
106.225
100.352
94.9712
90.0257
85.4668
81.2531
77.3484
73.7227
70.3548
67.2587
64.7118
345.963
337.365
327.781
316.513
302.828
286.424
268.098
249.056
230.511
213.099
197.091
182.547
169.406
157.551
146.855
137.193
128.453
120.531
113.339
106.769
100.771
95.2819
90.2416
85.6008
81.3169
77.3524
73.6762
70.2655
67.1327
64.5532
345.826
336.92
327.032
315.597
302.047
286.194
268.638
250.369
232.351
215.217
199.291
184.687
171.396
159.345
148.431
138.548
129.592
121.468
114.088
107.348
101.199
95.5759
90.4182
85.6759
81.3047
77.2657
73.5264
70.0624
66.8831
64.2599
345.671
336.409
326.156
314.479
300.98
285.556
268.681
251.118
233.649
216.853
201.076
186.476
173.088
160.878
149.775
139.69
130.532
122.212
114.648
107.742
101.444
95.6867
90.4114
85.5666
81.1073
76.9932
73.1904
69.6728
66.4459
63.7728
345.51
335.858
325.188
313.178
299.589
284.407
268.013
251.003
234.016
217.561
201.975
187.442
174.028
161.728
150.496
140.263
130.951
122.478
114.766
107.729
101.308
95.4397
90.0665
85.1366
80.6042
76.4284
72.574
69.0132
65.7464
63.0222
345.349
335.275
324.115
311.658
297.804
282.634
266.479
249.829
233.204
217.047
201.666
187.249
173.879
161.566
150.283
139.977
130.58
122.018
114.216
107.099
100.602
94.6655
89.2314
84.2491
79.6728
75.4611
71.578
67.9944
64.7044
61.9319
345.191
334.643
322.881
309.812
295.482
280.072
263.907
247.409
231.012
215.086
199.905
185.64
172.377
160.131
148.882
138.589
129.19
120.617
112.8
105.667
99.1558
93.2055
87.7607
82.7711
78.1914
73.98
70.1009
66.5238
63.2357
60.4214
345.034
333.917
321.367
307.446
292.376
276.455
260.036
243.496
227.196
211.44
196.453
182.377
169.286
157.188
146.065
135.878
126.571
118.076
110.328
103.258
96.8029
90.9057
85.5108
80.5692
76.0362
71.8706
68.0368
64.5036
61.2513
58.4045
344.876
333.013
319.358
304.222
288.071
271.348
254.445
237.699
221.4
205.78
191.003
177.172
164.331
152.475
141.583
131.61
122.499
114.185
106.601
99.6828
93.3685
87.6013
82.3274
77.4988
73.0719
69.0065
65.2674
61.8231
58.6509
55.7842
344.712
331.766
316.445
299.535
281.858
264.023
246.439
229.384
213.056
197.597
183.098
169.607
157.13
145.644
135.113
125.484
116.695
108.681
101.375
94.7144
88.6384
83.0917
78.0222
73.3834
69.1331
65.232
61.6469
58.3449
55.3106
52.4412
344.536
329.811
311.785
292.222
272.455
253.213
234.847
217.497
201.229
186.065
172.004
159.027
147.096
136.164
126.172
117.057
108.751
101.187
94.3005
88.0274
82.3099
77.0945
72.3312
67.9756
63.9876
60.3293
56.9712
53.8742
51.0558
48.2101
344.323
326.194
303.407
279.844
257.374
236.597
217.582
200.2
184.306
169.766
156.469
144.323
133.24
123.141
113.949
105.589
97.9898
91.0826
84.803
79.0905
73.89
69.1508
64.8266
60.8754
57.2614
53.9465
50.9116
48.0959
45.6024
42.827
343.915
317.808
286.027
256.741
231.354
209.541
190.611
173.992
159.237
146.024
134.131
123.389
113.669
104.868
96.8934
89.6669
83.1159
77.1749
71.7837
66.8873
62.4357
58.3842
54.6912
51.3199
48.2405
45.4125
42.8429
40.4087
38.398
35.7916
341.888
291.357
243.177
208.026
181.748
161.401
144.882
131.057
119.181
108.786
99.5775
91.3554
83.9792
77.3399
71.3489
65.9381
61.0471
56.6226
52.6161
48.9842
45.6872
42.6912
39.9633
37.4747
35.2091
33.1117
31.2587
29.3758
28.0818
25.8954
317.058
174.776
117.805
90.4943
74.6574
64.2679
56.6697
50.7079
45.7964
41.6122
37.9709
34.7585
31.8996
29.3433
27.0502
24.9852
23.1217
21.4374
19.9134
18.5319
17.2798
16.1387
15.108
14.1519
13.3121
12.4811
11.8303
11.0539
10.5844
9.75132
345.762
336.618
326.385
314.56
300.682
284.589
266.898
248.5
230.44
213.316
197.427
182.871
169.633
157.638
146.785
136.966
128.076
120.015
112.697
106.028
99.9432
94.3788
89.2775
84.5891
80.2697
76.2802
72.5877
69.1673
66.0225
63.4003
345.724
336.493
326.178
314.309
300.466
284.518
267.037
248.857
230.956
213.923
198.068
183.504
170.231
158.186
147.274
137.392
128.439
120.32
112.945
106.225
100.094
94.488
89.3501
84.6296
80.2823
76.2687
72.5556
69.1175
65.9575
63.3212
345.651
336.259
325.786
313.826
300.023
284.309
267.165
249.37
231.758
214.898
199.117
184.554
171.231
159.103
148.092
138.104
129.044
120.821
113.348
106.538
100.324
94.6452
89.4422
84.6646
80.2676
76.2111
72.4612
68.9917
65.8042
63.1417
345.554
335.939
325.242
313.133
299.347
283.87
267.116
249.754
232.493
215.865
200.201
185.665
172.302
160.091
148.971
138.862
129.677
121.331
113.74
106.821
100.509
94.7403
89.4579
84.6104
80.1524
76.0433
72.2485
68.7406
65.519
62.8215
345.44
335.555
324.575
312.245
298.404
283.094
266.677
249.714
232.805
216.434
200.92
186.445
173.074
160.804
149.594
139.379
130.08
121.62
113.919
106.896
100.488
94.6333
89.2735
84.3579
79.8406
75.6806
71.8425
68.2979
65.043
62.3057
345.318
335.124
323.794
311.155
297.145
281.871
265.664
249.003
232.395
216.266
200.919
186.536
173.197
160.912
149.655
139.372
129.997
121.454
113.671
106.572
100.092
94.1718
88.7531
83.7858
79.224
75.0264
71.1569
67.5864
64.3067
61.5292
345.191
334.643
322.881
309.812
295.482
280.071
263.906
247.408
231.01
215.084
199.902
185.637
172.374
160.128
148.879
138.586
129.187
120.615
112.797
105.665
99.1535
93.2035
87.7588
82.7693
78.1897
73.9785
70.0995
66.5225
63.2346
60.4203
345.061
334.096
321.779
308.112
293.266
277.511
261.195
244.704
228.411
212.635
197.61
183.488
170.346
158.197
147.024
136.79
127.436
118.899
111.11
104.001
97.5111
91.5806
86.1546
81.1839
76.6235
72.4324
68.5744
65.0187
61.7469
58.9023
344.927
333.441
320.373
305.865
290.249
273.913
257.244
240.605
224.318
208.645
193.775
179.827
166.861
154.878
143.859
133.764
124.536
116.112
108.425
101.411
95.0068
89.1558
83.8039
78.9026
74.4078
70.279
66.4806
62.9815
59.7586
56.8933
344.787
332.597
318.454
302.741
286.024
268.838
251.615
234.696
218.344
202.755
188.063
174.345
161.628
149.899
139.128
129.27
120.265
112.046
104.55
97.7116
91.4705
85.7702
80.5581
75.7867
71.4132
67.3976
63.7055
60.3054
57.1743
54.3007
344.639
331.403
315.623
298.144
279.889
261.558
243.611
226.332
209.906
194.442
180.004
166.614
154.259
142.906
132.509
123.01
114.344
106.444
99.2447
92.6813
86.6948
81.2303
76.2364
71.6672
67.4812
63.6397
60.1101
56.8593
53.8756
51.0112
344.477
329.501
311.043
290.923
270.576
250.825
232.071
214.47
198.076
182.885
168.869
155.983
144.173
133.376
123.525
114.55
106.378
98.9404
92.1709
86.0063
80.3888
75.265
70.586
66.3075
62.3905
58.7974
55.4999
52.4577
49.6967
46.8672
344.28
325.941
302.755
278.66
255.626
234.347
214.943
197.304
181.272
166.694
153.432
141.371
130.406
120.442
111.392
103.174
95.7117
88.9344
82.7761
77.1758
72.0785
67.434
63.1963
59.3243
55.7828
52.5341
49.5609
46.7989
44.3654
41.6162
343.888
317.624
285.49