/*--------------------------------*- C++ -*----------------------------------*\
  =========                 |
  \\      /  F ield         | OpenFOAM: The Open Source CFD Toolbox
   \\    /   O peration     | Website:  https://openfoam.org
    \\  /    A nd           | Version:  7
     \\/     M anipulation  |
\*---------------------------------------------------------------------------*/
FoamFile
{
    version     2.0;
    format      ascii;
    class       volScalarField;
    location    "500";
    object      nut;
}
// * * * * * * * * * * * * * * * * * * * * * * * * * * * * * * * * * * * * * //

dimensions      [0 2 -1 0 0 0 0];

internalField   nonuniform List<scalar> 
27370
(
624.392
316.353
132.689
37.8258
5.92767
10.6228
16.9743
25.42
35.0561
44.9401
54.3932
63.0055
70.5755
77.9957
84.9711
88.628
91.4819
93.6851
95.321
96.4675
97.1973
97.5778
97.68
97.6178
98.1071
625.825
382.192
159.495
54.2034
4.6065
11.615
20.5827
30.3035
40.1714
49.7226
58.6045
66.5856
73.5553
80.8156
87.7668
90.8934
93.3367
95.1817
96.5081
97.3906
97.8972
98.09
98.0347
97.8405
98.2226
627.49
513.375
231.384
87.1479
0.171327
8.57735
20.4846
32.1608
42.8649
52.4788
61.0241
68.5436
75.0701
80.6439
86.8261
92.8427
95.0512
96.7029
97.8688
98.6172
99.0108
99.1057
98.9525
98.6066
98.1682
98.3502
630.06
542.442
348.72
165.099
53.8855
0.146125
15.3454
29.2131
41.7269
52.7619
62.1986
70.1192
76.7148
82.1868
86.7051
90.4024
94.8512
99.2657
100.268
100.88
101.16
101.157
100.916
100.475
99.8704
99.1441
98.3834
98.2993
633.194
556.23
450.18
321.598
172.091
70.5932
39.5133
52.7339
61.9972
70.718
78.36
84.801
90.0355
94.1574
97.3237
99.7034
101.447
102.681
103.501
105.838
105.532
105.019
104.339
103.521
102.588
101.562
100.463
99.3187
98.2
97.8159
635.823
568.04
480.795
375.272
272.782
182.447
135.415
134.781
128.657
125.556
123.72
122.415
121.261
120.085
118.823
117.468
116.034
114.551
113.082
111.467
109.873
108.276
106.675
105.074
103.479
101.891
100.316
98.7676
97.2964
96.6099
637.123
574.685
499.61
415.595
333.32
266.485
220.443
190.187
172.862
161.043
152.485
145.856
140.366
135.628
131.421
127.612
124.117
120.884
117.889
115.054
112.389
109.876
107.496
105.232
103.071
101.003
99.0198
97.1253
95.3447
94.3819
636.424
574.079
504.451
432.501
364.037
305.547
260.315
226.951
203.405
186.07
172.721
161.858
153.036
145.548
139.069
133.372
128.301
123.747
119.627
115.859
112.397
109.203
106.24
103.481
100.901
98.4787
96.1965
94.0509
92.0349
90.8443
632.909
564.132
493.762
427.334
367.611
316.539
275.001
242.241
216.935
197.157
181.424
168.518
157.597
148.49
140.657
133.824
127.799
122.438
117.633
113.293
109.351
105.751
102.448
99.4033
96.5849
93.9661
91.5214
89.2463
87.0921
85.7392
625.107
541.625
465.368
400.891
347.266
302.894
266.522
236.977
213.128
193.769
177.908
164.78
153.405
143.796
135.581
128.406
122.085
116.475
111.463
106.956
102.88
99.175
95.7918
92.6893
89.8313
87.1904
84.7348
82.4681
80.2888
78.8506
609.941
501.329
416.331
353.391
305.867
268.674
238.696
214.14
193.864
176.97
162.841
150.894
140.429
131.505
123.788
117.015
111.03
105.708
100.948
96.6674
92.7982
89.2853
86.081
83.1477
80.4494
77.9641
75.6511
73.5378
71.456
70.0162
580.256
435.323
344.256
286.661
247.477
218.698
196.103
177.654
162.243
149.1
137.948
128.135
119.653
112.251
105.744
99.987
94.8667
90.2899
86.1797
82.4723
79.1135
76.0595
73.2694
70.7152
68.3608
66.1992
64.1723
62.3523
60.4947
59.1412
518.326
334.87
250.654
205.972
178.387
159.259
144.461
132.42
122.283
113.322
105.569
98.7144
92.6301
87.218
82.3886
78.0654
74.1829
70.6851
67.5235
64.6566
62.0471
59.6666
57.4825
55.482
53.6253
51.9326
50.3138
48.9067
47.401
46.2247
383.648
202.087
147.13
122.119
107.539
97.8438
90.0754
83.7965
78.3545
73.4546
69.0464
65.057
61.4438
58.1594
55.1741
52.4614
49.9956
47.7519
45.7065
43.8386
42.1267
40.5583
39.1077
37.7811
36.5299
35.41
34.2951
33.3725
32.346
31.4414
151.873
75.0632
58.1092
50.4824
45.8328
42.7285
40.161
37.9306
35.9175
34.0551
32.3263
30.7189
29.2365
27.8428
26.5472
25.3512
24.2505
23.2385
22.3072
21.4501
20.6574
19.9279
19.2443
18.6228
18.0201
17.4952
16.951
16.4944
16.0522
15.5102
12.4958
9.27986
7.6279
6.69953
6.10286
5.68027
5.35039
5.07432
4.83202
4.61232
4.40952
4.22049
4.04352
3.87808
3.72286
3.5771
3.44028
3.31193
3.19159
3.07874
2.97302
2.87361
2.78087
2.69245
2.61203
2.53102
2.46409
2.38673
2.32639
2.2509
625.828
382.106
159.396
54.3069
4.33855
11.3988
20.4545
30.2313
40.1295
49.698
58.5887
66.5752
73.5484
80.8102
87.7612
90.8891
93.3333
95.1789
96.5059
97.3887
97.8957
98.0886
98.0335
97.8395
98.2217
626.908
444.999
188.574
64.5583
5.02581
14.3754
24.7925
35.1558
45.0468
54.243
62.5901
69.9888
76.3959
83.4975
90.4224
93.0695
95.1046
96.6002
97.629
98.2594
98.5536
98.5677
98.3623
98.0423
98.3214
628.536
536.662
261.742
104.009
1.2674
0.910118
12.8697
25.4028
37.1355
47.6744
56.9596
65.0638
72.0814
78.0987
83.1893
89.2309
95.23
97.0034
98.2841
99.1341
99.6145
99.7811
99.6842
99.3693
98.8869
98.3334
98.4208
631.059
546.757
400.503
189.82
78.7652
1.32751
1.81833
21.6972
35.3376
47.3549
57.8229
66.7043
74.0974
80.1916
85.1901
89.2676
92.5628
96.8994
101.279
101.914
102.213
102.226
101.994
101.559
100.953
100.208
99.3629
98.5011
98.3332
633.99
559.649
458.913
335.804
193.37
100.305
53.2174
64.6009
71.0153
78.1668
84.6409
90.1308
94.5729
98.0264
100.621
102.505
103.816
104.672
105.161
107.448
106.85
106.085
105.189
104.184
103.092
101.93
100.714
99.4703
98.2662
97.8103
636.379
570.37
486.28
385.904
287.758
196.793
148.462
146.953
138.02
133.142
129.949
127.597
125.599
123.73
121.89
120.047
118.199
116.36
114.581
112.702
110.88
109.086
107.316
105.569
103.848
102.152
100.483
98.8543
97.3133
96.5673
637.472
576.118
502.827
421.497
341.873
276.394
229.993
198.623
179.727
166.819
157.141
149.735
143.605
138.34
133.695
129.518
125.712
122.212
118.988
115.955
113.12
110.461
107.953
105.578
103.32
101.168
99.1129
97.1558
95.32
94.3089
636.62
574.87
506.175
435.567
368.518
310.913
265.806
232.105
207.88
189.87
175.959
164.543
155.291
147.442
140.66
134.707
129.417
124.676
120.393
116.484
112.899
109.598
106.543
103.703
101.051
98.5671
96.2307
94.0379
91.9797
90.7511
633.002
564.505
494.57
428.772
369.73
319.177
277.855
245.067
219.532
199.453
183.407
170.249
159.055
149.722
141.698
134.701
128.533
123.047
118.133
113.698
109.672
105.999
102.631
99.5296
96.661
93.9979
91.5141
89.2046
87.0192
85.6369
625.138
541.749
465.646
401.414
348.103
304.013
267.82
238.34
214.452
194.995
179.007
165.752
154.267
144.527
136.207
128.937
122.531
116.846
111.766
107.198
103.069
99.3161
95.8901
92.7493
89.8572
87.1859
84.7031
82.4123
80.2108
78.7503
609.94
501.328
416.35
353.474
306.062
269
239.137
214.661
194.419
177.521
163.362
151.378
140.87
131.892
124.126
117.306
111.277
105.913
101.115
96.7991
92.8978
89.3555
86.1245
83.167
80.4465
77.9412
75.6101
73.4805
71.3835
69.9274
580.244
435.277
344.183
286.583
247.424
218.693
196.157
177.765
162.396
149.28
138.137
128.327
119.842
112.425
105.901
100.125
94.9859
90.3897
86.2606
82.5349
79.1586
76.0881
73.2825
70.7138
68.3459
66.1718
64.1332
62.3028
60.4354
59.0704
518.314
334.825
250.577
205.872
178.28
159.163
144.388
132.381
122.267
113.333
105.605
98.7619
92.6854
87.2759
82.4454
78.1185
74.2304
70.7258
67.5565
64.6814
62.0636
59.6746
57.4824
55.4739
53.6095
51.9096
50.2838
48.8706
47.3589
46.1752
383.642
202.063
147.085
122.056
107.462
97.765
89.9992
83.7341
78.3062
73.4216
69.0284
65.0504
61.4456
58.1674
55.1859
52.4751
50.0094
47.7645
45.717
43.8464
42.1311
40.5591
39.1048
37.7745
36.5194
35.3959
34.2773
33.3514
32.322
31.4126
151.872
75.0568
58.0946
50.4603
45.803
42.695
40.1266
37.8989
35.8902
34.033
32.3096
30.7072
29.2282
27.8389
26.5466
25.3527
24.2531
23.2416
22.3102
21.4526
20.6589
19.9284
19.2436
18.6208
18.0167
17.4905
16.945
16.4868
16.0445
15.4991
12.4958
9.27971
7.62728
6.69829
6.10094
5.6778
5.34753
5.07131
4.82905
4.60954
4.40703
4.21834
4.0417
3.87654
3.72157
3.57602
3.43938
3.31117
3.19093
3.07813
2.97244
2.87303
2.78027
2.6918
2.61136
2.53021
2.46339
2.38556
2.32579
2.24966
627.495
513.083
231.058
86.9126
0.188451
8.49636
20.3005
31.9827
42.7296
52.3838
60.9588
68.4983
75.0381
80.6209
86.8085
92.8282
95.0397
96.6937
97.8612
98.611
99.0056
99.1013
98.9487
98.6034
98.1653
98.3477
628.535
536.66
261.472
103.711
1.10386
0.817787
12.8127
25.301
37.0338
47.593
56.8999
65.0216
72.0516
78.0775
83.1744
89.2192
95.2209
96.9962
98.2782
99.1293
99.6105
99.7778
99.6814
99.3668
98.8848
98.3315
98.4191
630.474
545.386
343.295
156.052
46.4857
12.5091
26.4417
38.9956
50.1257
59.7514
67.9275
74.8051
80.5592
85.344
89.2838
94.3732
99.5227
100.507
101.11
101.381
101.369
101.119
100.67
100.057
99.3225
98.5556
98.4666
632.828
554.447
444.086
268.514
141.368
40.5094
18.8394
26.6569
39.8074
51.557
61.7932
70.5684
77.8879
83.855
88.6445
92.4483
95.4391
97.7567
101.28
104.883
104.857
104.585
104.107
103.456
102.663
101.753
100.75
99.6857
98.6366
98.3124
635.367
565.494
472.762
356.249
233.944
143.1
101.219
90.9125
91.553
94.9604
98.6449
101.919
104.54
106.473
107.78
108.561
108.918
108.945
108.713
110.331
109.197
107.97
106.675
105.328
103.942
102.528
101.098
99.6705
98.3079
97.7181
637.329
574.342
495.417
403.235
312.792
239.47
194.037
169.377
155.934
147.086
141.469
137.166
133.582
130.41
127.488
124.736
122.117
119.618
117.265
114.898
112.657
110.501
108.419
106.404
104.451
102.555
100.714
98.9369
97.2664
96.409
638.058
578.54
508.249
431.386
356.259
292.271
245.415
213.508
192.252
177.232
165.683
156.833
149.513
143.272
137.817
132.959
128.575
124.583
120.936
117.54
114.392
111.461
108.718
106.139
103.704
101.399
99.2102
97.1376
95.1998
94.0987
636.937
576.171
509.046
440.712
376.087
319.912
275.12
241.134
215.867
196.697
181.715
169.445
159.353
150.845
143.509
137.087
131.398
126.31
121.728
117.559
113.75
110.253
107.027
104.038
101.257
98.6593
96.2238
93.9444
91.8084
90.5087
633.139
565.072
495.849
431.114
373.256
323.614
282.722
249.966
224.086
203.503
186.907
173.314
161.652
151.89
143.528
136.233
129.805
124.093
118.981
114.372
110.194
106.387
102.901
99.6957
96.7356
93.9918
91.4368
89.0646
86.822
85.3848
625.17
541.888
466.011
402.181
349.409
305.821
269.966
240.634
216.707
197.096
180.897
167.425
155.751
145.783
137.275
129.836
123.278
117.457
112.256
107.58
103.353
99.5141
96.0108
92.801
89.8472
87.1209
84.5889
82.2546
80.0125
78.5106
609.92
501.263
416.287
353.503
306.275
269.442
239.791
215.469
195.301
178.414
164.21
152.168
141.592
132.525
124.674
117.772
111.665
106.229
101.363
96.9853
93.027
89.4327
86.154
83.1531
80.3931
77.8521
75.4884
73.3297
71.2053
69.7185
580.209
435.155
343.99
286.364
247.237
218.587
196.156
177.871
162.58
149.524
138.401
128.604
120.119
112.682
106.13
100.325
95.1535
90.5247
86.3633
82.606
79.1994
76.1
73.2671
70.6729
68.2812
66.0851
64.0259
62.177
60.2922
58.9053
518.287
334.726
250.409
205.653
178.037
158.933
144.195
132.25
122.177
113.295
105.617
98.7981
92.7394
87.3379
82.5086
78.1776
74.2816
70.7664
67.5848
64.6962
62.0643
59.6611
57.4547
55.4325
53.5547
51.8423
50.2043
48.7798
47.2584
46.0597
383.631
202.014
146.993
121.925
107.302
97.5977
89.8332
83.5907
78.1874
73.331
68.9661
65.0101
61.4221
58.1567
55.1837
52.4776
50.0135
47.7677
45.7173
43.8424
42.1219
40.544
39.0834
37.7466
36.485
35.3552
34.2303
33.2982
32.2644
31.3461
151.871
75.0449
58.0668
50.4176
45.7444
42.6278
40.0562
37.8321
35.8304
33.9823
32.2687
30.6754
29.2031
27.822
26.5358
25.3461
24.2492
23.2389
22.3077
21.4494
20.6545
19.9224
19.2355
18.6107
18.0042
17.4758
16.9279
16.4671
16.0238
15.4745
12.4958
9.27947
7.62615
6.696
6.09732
5.67303
5.3419
5.06525
4.82294
4.60369
4.40163
4.21349
4.03743
3.87276
3.71826
3.57313
3.43684
3.30889
3.18885
3.07619
2.97057
2.87118
2.77842
2.68989
2.60939
2.52812
2.46123
2.38322
2.32333
2.24704
630.054
542.418
347.886
164.42
53.361
0.132408
15.2006
29.0327
41.5287
52.5727
62.0389
69.9945
76.621
82.1171
86.6531
90.3631
94.821
99.2416
100.248
100.864
101.147
101.146
100.906
100.467
99.8635
99.1381
98.3781
98.2946
631.053
546.734
399.819
189.129
78.5307
1.55918
1.75069
21.4903
35.1631
47.1924
57.6741
66.5789
73.9984
80.1163
85.1334
89.2249
92.5301
96.8746
101.26
101.899
102.201
102.215
101.985
101.551
100.946
100.202
99.358
98.4968
98.3294
632.824
554.431
444.04
268.056
141.113
39.9479
18.8411
26.5433
39.6705
51.4538
61.7076
70.4947
77.8264
83.8057
88.606
92.4188
95.4163
97.739
101.266
104.872
104.849
104.578
104.101
103.451
102.659
101.75
100.747
99.683
98.6341
98.3102
634.932
563.448
466.994
344.124
213.678
122.256
70.6859
65.1681
70.6861
77.6127
84.1245
89.7506
94.3563
97.9689
100.701
102.694
104.089
105.002
107.15
109.367
108.485
107.472
106.355
105.159
103.9
102.593
101.252
99.9001
98.6034
98.0708
636.979
572.352
489.252
389.546
291.389
197.505
149.477
128.976
121.523
119.268
118.704
118.617
118.516
118.204
117.636
116.831
115.835
114.7
113.463
113.889
112.058
110.228
108.412
106.618
104.848
103.106
101.395
99.7272
98.1554
97.3868
638.411
578.908
506.019
423.282
341.448
273.483
226.174
196.63
178.193
165.639
156.531
149.625
143.926
139.013
134.647
130.685
127.044
123.674
120.568
117.563
114.775
112.149
109.66
107.294
105.038
102.881
100.815
98.8445
97.0037
95.9977
638.692
581.211
514.368
442.662
372.809
312.202
265.438
231.78
207.858
190.288
176.746
165.867
157.029
149.518
143
137.249
132.11
127.477
123.277
119.408
115.853
112.569
109.52
106.675
104.01
101.505
99.144
96.9217
94.8502
93.629
637.241
577.481
512.094
446.381
384.64
330.576
286.45
252.039
225.626
205.117
188.857
175.568
164.399
155.05
147.003
139.977
133.769
128.235
123.266
118.763
114.664
110.915
107.469
104.289
101.34
98.5959
96.0327
93.642
91.4048
90.0105
633.227
565.499
496.991
433.448
377.02
328.574
288.328
255.673
229.456
208.326
191.112
176.935
164.784
154.47
145.68
138.009
131.252
125.253
119.89
115.061
110.689
106.711
103.076
99.7385
96.6619
93.8155
91.17
88.7184
86.402
84.8921
625.138
541.829
466.1
402.677
350.519
307.576
272.193
243.099
219.184
199.437
183.019
169.294
157.414
147.18
138.443
130.797
124.054
118.065
112.714
107.903
103.556
99.6099
96.0103
92.7144
89.6836
86.8886
84.2951
81.9064
79.6129
78.0562
609.841
501.008
415.94
353.202
306.164
269.608
240.236
216.135
196.095
179.257
165.03
152.935
142.295
133.138
125.191
118.195
111.999
106.478
101.532
97.0803
93.0536
89.3964
86.06
83.0063
80.1982
77.6135
75.2098
73.0157
70.8572
69.3301
580.131
434.891
343.58
285.876
246.756
218.193
195.89
177.749
162.57
149.609
138.528
128.765
120.297
112.847
106.274
100.44
95.2361
90.5726
86.3757
82.583
79.1419
76.0091
73.1445
70.5203
68.1002
65.878
63.7941
61.923
60.0172
58.6014
518.234
334.549
250.114
205.266
177.598
158.493
143.793
131.925
121.905
113.099
105.489
98.7113
92.6849
87.3027
82.4827
78.1535
74.2535
70.73
67.5369
64.6348
61.9881
59.5695
57.3473
55.3095
53.4163
51.6894
50.037
48.5995
47.0666
45.8481
383.611
201.935
146.848
121.718
107.044
97.3182
89.5471
83.3283
77.9547
73.1357
68.8089
64.8846
61.3222
58.0773
55.1194
52.423
49.9642
47.7202
45.6686
43.7904
42.0651
40.4813
39.0139
37.6703
36.4011
35.2644
34.1319
33.1927
32.1543
31.2235
151.869
75.0275
58.0258
50.3537
45.6552
42.5231
39.9437
37.7214
35.7269
33.8899
32.1887
30.6076
29.1448
27.7752
26.4981
25.3151
24.2227
23.2151
22.285
21.4268
20.631
19.8973
19.2084
18.5813
17.9721
17.4413
16.8908
16.4267
15.983
15.4269
12.4958
9.27912
7.62455
6.69267
6.09198
5.66586
5.33328
5.05575
4.8131
4.59396
4.39234
4.20484
4.02949
3.86546
3.71159
3.56704
3.43125
3.30372
3.184
3.07157
2.96612
2.86682
2.7741
2.68554
2.60504
2.52357
2.45685
2.37807
2.31963
2.24077
633.182
556.175
450.011
321.184
171.219
69.9147
38.6635
52.2056
61.6236
70.4227
78.1179
84.5992
89.8693
94.0234
97.2177
99.6203
101.382
102.63
103.461
105.806
105.505
104.997
104.32
103.505
102.575
101.55
100.453
99.3097
98.192
97.8087
633.98
559.603
458.783
335.486
192.818
88.3429
52.6533
63.7943
70.6457
77.9012
84.4313
89.9588
94.4319
97.9125
100.53
102.434
103.76
104.627
105.125
107.421
106.827
106.066
105.173
104.171
103.08
101.919
100.705
99.4624
98.2592
97.804
635.36
565.463
472.68
356.051
233.554
142.493
100.859
90.6442
91.3246
94.7803
98.5026
101.804
104.446
106.397
107.719
108.512
108.878
108.913
108.687
110.311
109.181
107.956
106.663
105.318
103.933
102.521
101.091
99.6647
98.3027
97.7134
636.976
572.338
489.218
389.472
291.26
197.311
149.326
128.865
121.427
119.188
118.639
118.564
118.473
118.169
117.607
116.808
115.816
114.684
113.45
113.88
112.05
110.221
108.406
106.612
104.844
103.103
101.392
99.7242
98.1526
97.3843
638.438
578.688
504.58
419.422
335.127
253.58
201.358
172.215
156.693
147.747
142.035
137.84
134.426
131.407
128.601
125.927
123.355
120.878
118.497
117.382
114.784
112.289
109.903
107.62
105.432
103.332
101.314
99.3834
97.5798
96.6091
639.309
582.844
515.48
441.345
368.273
305.339
257.745
224.603
201.717
185.361
172.823
162.986
154.938
148.087
142.112
136.806
132.034
127.704
123.768
120.067
116.682
113.542
110.61
107.862
105.277
102.836
100.527
98.3466
96.3182
95.1444
639.129
583.224
519.397
452.443
387.779
330.802
284.861
249.899
223.683
203.717
188.074
175.312
164.762
155.881
148.215
141.497
135.541
130.211
125.412
121.033
117.038
113.374
109.994
106.864
103.952
101.234
98.6869
96.3043
94.0868
92.7304
637.35
578.139
514.118
450.759
391.83
340.053
296.947
262.38
235.062
213.365
195.883
181.571
169.379
159.114
150.328
142.663
135.907
129.9
124.522
119.665
115.259
111.244
107.566
104.182
101.057
98.1591
95.4616
92.9539
90.6078
89.1075
633.133
565.319
497.18
434.622
379.575
332.426
292.998
260.618
234.229
212.676
194.928
180.201
167.603
156.751
147.529
139.478
132.388
126.096
120.475
115.42
110.849
106.697
102.907
99.4341
96.238
93.2864
90.5481
88.0153
85.6213
84.0304
624.948
541.25
465.388
402.201
350.589
308.313
273.501
244.76
220.975
201.192
184.632
170.705
158.659
148.195
139.249
131.409
124.489
118.34
112.843
107.902
103.437
99.3848
95.6904
92.3095
89.2027
86.3398
83.6854
81.2434
78.8974
77.2802
609.638
500.358
414.991
352.17
305.256
268.969
239.912
216.092
196.249
179.53
165.342
153.239
142.576
133.368
125.351
118.281
112.01
106.416
101.402
96.8836
92.795
89.0801
85.6904
82.5876
79.7343
77.1085
74.667
72.4397
70.248
68.6766
579.969
434.374
342.786
284.911
245.739
217.235
195.064
177.089
162.058
149.236
138.227
128.538
120.116
112.685
106.114
100.271
95.05
90.365
86.1433
82.3242
78.8558
75.6958
72.8044
70.1543
67.7095
65.4641
63.3579
61.4672
59.5423
58.0949
518.14
334.248
249.627
204.627
176.859
157.722
143.046
131.256
121.297
112.592
105.059
98.3472
92.3739
87.0302
82.2365
77.9234
74.0316
70.51
67.3141
64.4057
61.7502
59.3211
57.0873
55.0375
53.1318
51.3929
49.7282
48.2794
46.7373
45.497
383.58
201.819
146.634
121.412
106.657
96.8866
89.0929
82.8897
77.5442
72.7685
68.4855
64.6021
61.0748
57.86
54.926
52.2475
49.8011
47.5648
45.5172
43.6402
41.9136
40.3271
38.8555
37.5071
36.2322
35.0899
33.9515
33.0055
31.9656
31.0187
151.867
75.0044
57.9706
50.2661
45.531
42.3736
39.7787
37.5528
35.5628
33.7364
32.0485
30.4815
29.0305
27.6752
26.4102
25.2368
24.1514
23.1487
22.2217
21.3651
20.5698
19.8359
19.1458
18.5174
17.9063
17.3733
16.8214
16.3521
15.9157
15.3388
12.4958
9.27869
7.62251
6.68833
6.08486
5.65608
5.32123
5.04212
4.79858
4.57918
4.37776
4.19078
4.01614
3.85279
3.69965
3.55581
3.42066
3.2937
3.17446
3.06242
2.95726
2.85818
2.76563
2.67713
2.5968
2.51493
2.44978
2.36443
2.33227
2.21112
635.809
567.981
480.643
374.936
272.216
181.716
134.669
134.292
128.295
125.268
123.49
122.228
121.109
119.96
118.721
117.384
115.966
114.494
113.036
111.429
109.841
108.249
106.652
105.054
103.461
101.876
100.303
98.7558
97.2858
96.6003
636.367
570.32
486.155
385.636
287.347
196.495
147.833
146.599
137.706
132.894
129.751
127.436
125.467
123.621
121.801
119.974
118.139
116.31
114.54
112.668
110.851
109.062
107.295
105.551
103.832
102.138
100.471
98.8436
97.3037
96.5585
637.321
574.305
495.331
403.06
312.51
239.137
193.739
169.129
155.717
146.907
141.324
137.046
133.484
130.329
127.421
124.681
122.071
119.58
117.233
114.871
112.634
110.482
108.403
106.39
104.438
102.544
100.704
98.9281
97.2586
96.4019
638.406
578.888
505.971
423.191
341.303
273.304
226.007
196.487
178.07
165.533
156.443
149.553
143.866
138.963
134.605
130.65
127.014
123.649
120.547
117.545
114.76
112.136
109.649
107.284
105.029
102.873
100.808
98.8384
96.9982
95.9927
639.307
582.836
515.462
441.311
368.222
305.273
257.68
224.545
201.666
185.318
172.785
162.955
154.912
148.065
142.093
136.79
132.02
127.692
123.758
120.058
116.675
113.535
110.604
107.857
105.272
102.833
100.524
98.3435
96.3154
95.1419
639.667
584.845
521.369
453.838
388.067
330.075
283.557
248.495
222.441
202.758
187.405
174.893
164.614
155.936
148.437
141.856
136.012
130.772
126.048
121.718
117.767
114.14
110.791
107.685
104.792
102.087
99.5505
97.1743
94.9666
93.6253
639.084
583.55
521.522
458.127
397.811
344.292
299.794
264.415
236.73
214.941
197.492
183.256
171.153
161.019
152.306
144.703
137.994
132.023
126.67
121.826
117.426
113.412
109.73
106.338
103.201
100.287
97.5721
95.0442
92.6903
91.2
637.031
577.337
513.748
452
395.397
345.796
303.995
269.742
242.02
219.554
201.179
185.999
173.085
161.994
152.565
144.344
137.107
130.683
124.943
119.775
115.1
110.849
106.967
103.405
100.124
97.0915
94.2765
91.6674
89.2229
87.6188
632.669
563.908
495.422
433.333
379.38
333.483
295.033
263.179
236.914
215.214
197.169
182.07
169.176
157.928
148.36
140.01
132.652
126.123
120.291
115.051
110.317
106.021
102.104
98.5186
95.2237
92.1854
89.3707
86.7721
84.3113
82.6421
624.454
539.685
463.166
399.873
348.626
306.968
272.793
244.554
221.079
201.443
184.906
170.917
158.81
148.231
139.157
131.193
124.154
117.895
112.296
107.26
102.71
98.58
94.8152
91.3709
88.2071
85.2934
82.5933
80.1122
77.7242
76.0493
609.206
498.99
412.974
349.847
302.938
266.877
238.154
214.682
195.132
178.64
164.596
152.568
141.969
132.794
124.769
117.681
111.383
105.758
100.709
96.1558
92.0324
88.2836
84.8614
81.7279
78.8459
76.1937
73.7272
71.479
69.2635
67.6507
579.659
433.415
341.346
283.159
243.845
215.352
193.303
175.514
160.667
148.043
137.155
127.601
119.274
111.914
105.391
99.5782
94.3758
89.6997
85.4802
81.658
78.1831
75.0141
72.112
69.4505
66.9936
64.7365
62.618
60.7173
58.7812
57.3047
517.973
333.741
248.834
203.598
175.663
156.447
141.768
130.05
120.156
111.574
104.138
97.5216
91.6293
86.3528
81.6121
77.3397
73.478
69.978
66.7968
63.8978
61.2472
58.82
56.5854
54.5333
52.6237
50.8806
49.2104
47.7566
46.2115
44.9522
383.53
201.645
146.322
120.964
106.088
96.2395
88.3995
82.1957
76.8718
72.141
67.9073
64.0743
60.5934
57.4208
54.5229
51.874
49.451
47.2326
45.1983
43.3307
41.6103
40.0276
38.5577
37.2099
35.9341
34.7906
33.6502
32.7008
31.662
30.7069
151.863
74.9741
57.8977
50.1487
45.3619
42.1657
39.5439
37.3059
35.3146
33.4961
31.8208
30.2688
28.8317
27.4935
26.2439
25.0835
24.0086
23.0141
22.0932
21.2412
20.4488
19.717
19.0279
18.4001
17.7887
17.2554
16.703
16.2332
15.7916
15.2278
12.4958
9.27819
7.62
6.68286
6.07566
5.64315
5.30493
5.02325
4.77796
4.55763
4.35595
4.1692
3.9951
3.8324
3.68003
3.53702
3.40267
3.27646
3.15789
3.04644
2.9418
2.84313
2.75095
2.66273
2.58256
2.50124
2.4345
2.3564
2.29633
2.21956
637.111
574.635
499.493
415.366
332.953
266.051
220.008
189.805
172.557
160.788
152.281
145.688
140.226
135.512
131.324
127.53
124.049
120.826
117.841
115.012
112.353
109.846
107.47
105.209
103.051
100.985
99.0038
97.111
95.3318
94.3701
637.461
576.075
502.727
421.305
341.579
276.05
229.645
198.315
179.464
166.596
156.961
149.586
143.481
138.236
133.608
129.445
125.65
122.16
118.944
115.917
113.087
110.433
107.928
105.556
103.301
101.152
99.0981
97.1425
95.308
94.298
638.05
578.507
508.176
431.25
356.05
292.019
245.164
213.283
192.055
177.066
165.541
156.716
149.415
143.189
137.747
132.9
128.525
124.541
120.899
117.508
114.365
111.438
108.698
106.121
103.688
101.385
99.1976
97.1263
95.1896
94.0893
638.686
581.19
514.321
442.579
372.684
312.047
265.281
231.636
207.73
190.178
176.65
165.787
156.961
149.459
142.951
137.207
132.074
127.446
123.25
119.384
115.833
112.552
109.504
106.661
103.998
101.495
99.1343
96.913
94.8422
93.6216
639.127
583.212
519.373
452.401
387.717
330.725
284.78
249.823
223.614
203.656
188.02
175.265
164.723
155.847
148.185
141.472
135.519
130.192
125.395
121.019
117.026
113.363
109.984
106.855
103.944
101.226
98.6805
96.2985
94.0815
92.7255
639.083
583.545
521.513
458.112
397.789
344.265
299.765
264.387
236.704
214.917
197.471
183.237
171.137
161.004
152.294
144.692
137.984
132.014
126.663
121.819
117.42
113.407
109.725
106.334
103.197
100.284
97.5691
95.0415
92.6877
91.1976
638.199
581.007
518.895
457.44
400.335
349.913
307.325
272.474
244.345
221.617
203.072
187.775
174.779
163.635
154.153
145.891
138.618
132.162
126.391
121.194
116.49
112.211
108.302
104.714
101.409
98.3513
95.5129
92.8804
90.4209
88.8138
635.97
574.053
509.433
448.226
393.296
345.667
305.423
272.03
244.552
221.929
203.182
187.535
174.252
162.658
152.795
144.215
136.659
129.957
123.972
118.593
113.734
109.323
105.302
101.62
98.2355
95.1135
92.2216
89.548
87.0333
85.341
631.564
560.4
490.446
428.109
374.863
330.131
292.824
261.833
236.097
214.654
196.679
181.524
168.571
157.188
147.451
138.964
131.473
124.821
118.877
113.536
108.713
104.337
100.35
96.7031
93.3543
90.2694
87.414
84.7824
82.2803
80.5467
623.431
536.435
458.442
394.576
343.477
302.405
268.966
241.421
218.501
199.271
183.005
169.176
157.176
146.671
137.613
129.649
122.599
116.321
110.699
105.64
101.065
96.9108
93.1233
89.658
86.4749
83.5445
80.8287
78.3367
75.9291
74.2086
608.37
496.386
409.18
345.45
298.412
262.554
234.218
211.197
192.073
175.957
162.212
150.387
139.984
130.965
123.037
116.02
109.776
104.189
99.1675
94.6337
90.5232
86.783
83.3659
80.2355
77.3548
74.7035
72.2362
69.99
67.7697
66.1251
579.082
431.686
338.826
280.144
240.589
212.067
190.143
172.577
157.976
145.626
134.931
125.599
117.444
110.23
103.822
98.1012
92.9718
88.3536
84.1796
80.3932
76.9461
73.799
70.9138
68.2657
65.8189
63.5705
61.4575
59.5639
57.6319
56.1334
517.673
332.876
247.532
201.949
173.767
154.421
139.713
128.065
118.244
109.813
102.506
96.0239
90.2524
85.0829
80.4332
76.2369
72.4381
68.9896
65.8502
62.9849
60.3614
57.9558
55.7384
53.7004
51.8014
50.0677
48.4039
46.956
45.4198
44.145
383.445
201.372
145.849
120.297
105.247
95.2789
87.3634
81.1395
75.8294
71.1454
66.9681
63.1977
59.7779
56.6637
53.8185
51.2155
48.8314
46.6456
44.638
42.7923
41.0896
39.5213
38.0627
36.7243
35.4554
34.318
33.1825
32.2345
31.2069
30.2396
151.858
74.9328
57.7982
49.9872
45.1284
41.8756
39.2123
36.9508
34.9506
33.1359
31.4718
29.9358
28.5152
27.197
25.9668
24.8238
23.7639
22.7821
21.8717
21.0283
20.2429
19.5168
18.8319
18.208
17.5992
17.068
16.5184
16.0468
15.6133
15.0419
12.4958
9.27759
7.61687
6.67583
6.0636
5.6259
5.28287
4.99726
4.74909
4.52694
4.32434
4.13737
3.96358
3.80145
3.64989
3.50781
3.37446
3.24923
3.1316
3.02102
2.91719
2.81922
2.72771
2.63999
2.56043
2.47934
2.41335
2.33493
2.27591
2.19867
636.415
574.041
504.369
432.353
363.81
305.27
260.026
226.681
203.173
185.872
172.55
161.717
152.916
145.446
138.981
133.297
128.236
123.691
119.579
115.817
112.361
109.171
106.212
103.456
100.879
98.4589
96.1787
94.0349
92.0203
90.8308
636.611
574.837
506.104
435.439
368.327
310.68
265.561
231.875
207.675
189.693
175.806
164.415
155.182
147.349
140.58
134.638
129.358
124.625
120.349
116.445
112.866
109.568
106.516
103.679
101.031
98.5485
96.214
94.0228
91.966
90.7383
636.93
576.145
508.991
440.616
375.944
319.736
274.934
240.957
215.707
196.556
181.593
169.339
159.263
150.768
143.443
137.029
131.347
126.267
121.69
117.526
113.721
110.227
107.004
104.018
101.239
98.643
96.2091
93.9311
91.7962
90.4974
637.236
577.463
512.056
446.316
384.545
330.458
286.325
251.918
225.514
205.017
188.769
175.49
164.332
154.992
146.952
139.932
133.731
128.201
123.237
118.737
114.641
110.894
107.451
104.272
101.325
98.5828
96.0208
93.6312
91.3949
90.0013
637.347
578.128
514.095
450.721
391.776
339.985
296.873
262.306
234.993
213.302
195.826
181.52
169.334
159.075
150.294
142.633
135.881
129.877
124.501
119.647
115.243
111.229
107.553
104.171
101.046
98.1494
95.4528
92.9458
90.6004
89.1007
637.03
577.332
513.737
451.982
395.371
345.763
303.958
269.705
241.984
219.521
201.148
185.972
173.06
161.972
152.545
144.326
137.091
130.669
124.93
119.764
115.09
110.84
106.959
103.398
100.118
97.0854
94.271
91.6623
89.2181
87.6144
635.97
574.051
509.429
448.22
393.287
345.655
305.41
272.017
244.539
221.916
203.171
187.524
174.242
162.649
152.787
144.208
136.653
129.951
123.966
118.588
113.729
109.319
105.298
101.617
98.2325
95.1107
92.2191
89.5457
87.0312
85.339
633.691
566.845
499.229
437.4
383.593
337.864
299.511
267.592
241.093
219.043
200.587
185.043
171.813
160.169
150.207
141.549
133.911
127.13
121.074
115.633
110.72
106.263
102.203
98.4889
95.0789
91.9375
89.0306
86.3494
83.8101
82.0576
629.378
553.487
480.521
417.155
364.344
320.827
284.949
255.254
230.548
209.867
192.431
177.646
164.942
153.754
144.139
135.732
128.3
121.689
115.776
110.459
105.655
101.295
97.3224
93.6887
90.3528
87.2814
84.4385
81.8235
79.3204
77.5469
621.488
530.372
449.758
384.818
333.757
293.368
260.889
234.333
212.302
193.812
178.137
164.764
153.099
142.913
134.075
126.284
119.373
113.206
107.675
102.691
98.1792
94.0793
90.3384
86.914
83.7671
80.8697
78.1827
75.7217
73.3291
71.5837
606.812
491.659
402.492
337.852
290.634
255.057
227.254
204.867
186.374
170.843
157.605
146.156
136.14
127.421
119.735
112.917
106.835
101.384
96.4761
92.0374
88.0076
84.3362
80.9783
77.8995
75.0637
72.453
70.02
67.8094
65.613
63.9534
578.014
428.595
334.497
275.13
235.279
206.749
185.013
167.76
153.508
141.545
131.148
122.158
114.281
107.31
101.108
95.5619
90.5798
86.086
82.0172
78.3201
74.9491
71.8672
69.038
66.4386
64.0338
61.8233
59.7419
57.8799
55.9749
54.4665
517.121
331.359
245.356
199.297
170.795
151.288
136.55
124.993
115.274
107.04
99.9127
93.6206
88.025
83.0153
78.5073
74.4346
70.7426
67.3858
64.3248
61.5267
58.9606
56.6045
54.4293
52.4283
50.5608
48.8556
47.2157
45.789
44.2805
42.9946
383.292
200.917
145.097
119.272
103.984
93.853
85.8346
79.5771
74.2787
69.6491
65.5423