/*--------------------------------*- C++ -*----------------------------------*\
  =========                 |
  \\      /  F ield         | OpenFOAM: The Open Source CFD Toolbox
   \\    /   O peration     | Website:  https://openfoam.org
    \\  /    A nd           | Version:  7
     \\/     M anipulation  |
\*---------------------------------------------------------------------------*/
FoamFile
{
    version     2.0;
    format      ascii;
    class       volScalarField;
    location    "500";
    object      omega;
}
// * * * * * * * * * * * * * * * * * * * * * * * * * * * * * * * * * * * * * //

dimensions      [0 0 -1 0 0 0 0];

internalField   nonuniform List<scalar> 
27370
(
0.558857
0.6949
1.2206
8.18652
3.00729
3.27462
2.98448
2.56999
2.1938
1.88916
1.65098
1.46564
1.32015
1.18989
1.07542
1.00712
0.949533
0.899877
0.856655
0.818686
0.785025
0.754928
0.727794
0.703219
0.679278
0.557162
0.674242
1.07225
5.24481
4.6591
4.04026
3.16643
2.56336
2.14319
1.83859
1.61052
1.43545
1.29814
1.17176
1.06003
0.995558
0.940493
0.892893
0.851316
0.814644
0.782
0.7527
0.726192
0.70211
0.678573
0.554926
0.650553
0.894058
2.54595
14.6041
6.73003
4.10453
2.98591
2.36963
1.98055
1.71253
1.51625
1.36606
1.24738
1.13435
1.03246
0.974371
0.924246
0.880497
0.841918
0.807584
0.776766
0.748898
0.723518
0.700331
0.677524
0.551755
0.632741
0.824759
1.44512
5.54214
96.776
7.738
4.40648
3.12186
2.44322
2.02714
1.74756
1.54705
1.39591
1.27746
1.18174
1.08695
0.998568
0.948508
0.904557
0.86558
0.830713
0.79928
0.770743
0.744676
0.720725
0.698681
0.676791
0.54812
0.613281
0.742887
1.02061
1.81199
3.96426
5.88828
4.01123
3.11772
2.52363
2.12275
1.84013
1.63264
1.47485
1.35102
1.25112
1.16854
1.09884
1.03891
0.965409
0.923294
0.885506
0.851343
0.820259
0.791818
0.765658
0.741486
0.719044
0.698218
0.677268
0.545049
0.597405
0.688913
0.85446
1.12197
1.59009
1.9577
1.77345
1.70121
1.60141
1.49966
1.40485
1.31977
1.24447
1.17799
1.1191
1.06663
1.01953
0.976746
0.9382
0.902951
0.870577
0.840712
0.813049
0.787334
0.763347
0.740913
0.719865
0.700184
0.680044
0.543258
0.587936
0.657785
0.763993
0.910868
1.07448
1.21098
1.29736
1.31651
1.30344
1.27165
1.23086
1.18719
1.14343
1.10099
1.06051
1.02225
0.986252
0.952362
0.9206
0.890769
0.862707
0.83628
0.811372
0.78787
0.765664
0.744659
0.724745
0.706014
0.686412
0.543288
0.586357
0.647002
0.727292
0.825957
0.931421
1.02533
1.09504
1.13304
1.1466
1.14324
1.13003
1.10867
1.08329
1.0557
1.02715
0.998438
0.97003
0.942239
0.915306
0.889339
0.864386
0.840457
0.817545
0.795631
0.77468
0.754665
0.735504
0.717439
0.697973
0.545824
0.594614
0.656525
0.728768
0.808183
0.888465
0.960958
1.01879
1.05798
1.07999
1.08774
1.08533
1.07638
1.06081
1.04154
1.01991
0.996883
0.973134
0.949133
0.925226
0.901656
0.878588
0.856128
0.834344
0.813284
0.792958
0.773396
0.754499
0.73675
0.716869
0.552209
0.61705
0.691193
0.767446
0.842059
0.911763
0.972803
1.02198
1.05747
1.07977
1.09039
1.09117
1.08675
1.07587
1.06021
1.04172
1.0213
0.999634
0.977259
0.954574
0.931881
0.909402
0.887296
0.865673
0.844625
0.824174
0.804423
0.785161
0.767326
0.746284
0.565536
0.663661
0.764702
0.856172
0.934698
1.00037
1.05381
1.09511
1.12439
1.14262
1.15064
1.15026
1.14516
1.13384
1.11807
1.09943
1.07874
1.05667
1.03375
1.0104
0.986933
0.963585
0.940545
0.917929
0.895871
0.874353
0.853618
0.833135
0.814763
0.791488
0.594052
0.759328
0.910372
1.02876
1.11604
1.17884
1.22382
1.25462
1.2735
1.28297
1.28297
1.27777
1.26628
1.25004
1.23029
1.20798
1.18387
1.15858
1.13258
1.10628
1.07998
1.0539
1.02824
1.00309
0.978647
0.954728
0.931952
0.908926
0.889513
0.862329
0.664512
0.975766
1.21581
1.37011
1.46196
1.51283
1.54068
1.55221
1.55181
1.54555
1.53129
1.51196
1.48857
1.46192
1.43283
1.40202
1.37009
1.33754
1.30479
1.27215
1.23992
1.20824
1.17737
1.1472
1.11823
1.08967
1.06327
1.03532
1.01426
0.980185
0.896594
1.57455
1.95135
2.11885
2.17939
2.18144
2.16668
2.13526
2.09717
2.05659
2.0132
1.96781
1.92084
1.87309
1.82494
1.77672
1.72876
1.68135
1.63479
1.58927
1.54506
1.50211
1.46088
1.42068
1.38298
1.34503
1.31202
1.27402
1.25016
1.20285
2.25129
3.88455
4.19845
4.15147
4.0172
3.84974
3.69792
3.55904
3.43109
3.31213
3.19963
3.09231
2.98852
2.89038
2.79642
2.70592
2.61867
2.53466
2.45399
2.37661
2.3028
2.23199
2.1653
2.10026
2.04139
1.98001
1.93118
1.86887
1.8363
1.7583
25.3733
18.8431
15.4887
13.6037
12.3921
11.534
10.8642
10.3036
9.81159
9.36549
8.95369
8.56986
8.21051
7.87459
7.5594
7.26343
6.98561
6.72499
6.48064
6.25149
6.03682
5.83496
5.64666
5.46709
5.30396
5.13881
5.00545
4.83842
4.7545
4.53923
0.55716
0.674234
1.07216
5.2636
4.79239
4.07884
3.17632
2.56648
2.14437
1.83908
1.61076
1.43557
1.29821
1.1718
1.06007
0.995584
0.940511
0.892907
0.851326
0.814652
0.782006
0.752705
0.726196
0.702114
0.678576
0.555814
0.660378
0.97694
3.85439
6.22617
4.25901
3.15453
2.50379
2.08245
1.78856
1.57237
1.40724
1.27752
1.15485
1.04548
0.98442
0.931929
0.886329
0.846311
0.810856
0.779164
0.750611
0.724691
0.701075
0.677922
0.553676
0.642225
0.85193
2.20078
82.5493
18.8313
6.1358
3.84926
2.84591
2.28039
1.91892
1.66826
1.4839
1.34225
1.22979
1.11981
1.01972
0.964604
0.916739
0.874733
0.83751
0.804237
0.774253
0.747045
0.722189
0.69942
0.676959
0.550628
0.626662
0.79606
1.28982
3.89081
69.6543
33.0663
6.40157
3.97976
2.92132
2.33049
1.95649
1.69992
1.51332
1.37126
1.2591
1.16792
1.07528
0.9883
0.940546
0.898381
0.860799
0.827031
0.79647
0.768627
0.743114
0.719609
0.697924
0.676332
0.547248
0.608821
0.72727
0.97556
1.61376
2.82602
4.58023
3.40684
2.81459
2.35093
2.01567
1.76959
1.58395
1.43997
1.32531
1.23176
1.15374
1.08741
1.03004
0.957514
0.917088
0.880637
0.847538
0.817308
0.789554
0.763949
0.740225
0.718148
0.69762
0.676916
0.544445
0.594494
0.680213
0.829595
1.06275
1.47694
1.79727
1.64284
1.60416
1.52858
1.44516
1.36359
1.28823
1.22011
1.15899
1.10417
1.05482
1.01015
0.969303
0.932277
0.898241
0.866845
0.837771
0.810752
0.78556
0.762004
0.739924
0.719167
0.699727
0.679786
0.542873
0.586159
0.65298
0.752465
0.887335
1.03626
1.16296
1.2469
1.27257
1.26563
1.24164
1.20655
1.16762
1.12768
1.08829
1.05025
1.01396
0.979547
0.946943
0.916226
0.887247
0.859883
0.834034
0.809605
0.7865
0.764623
0.743892
0.724206
0.705666
0.686222
0.54306
0.585334
0.644391
0.721598
0.815325
0.915115
1.00467
1.07225
1.11112
1.12683
1.12582
1.11542
1.0964
1.07306
1.04721
1.02012
0.992621
0.965227
0.938292
0.912076
0.886707
0.862255
0.838745
0.816184
0.794566
0.773864
0.754058
0.735073
0.717158
0.697815
0.545702
0.594066
0.655154
0.725888
0.803053
0.880737
0.95101
1.00745
1.04638
1.06892
1.07767
1.0762
1.06851
1.05408
1.03579
1.01504
0.99277
0.969681
0.946246
0.922824
0.899668
0.876954
0.854794
0.833268
0.812427
0.792287
0.772885
0.754122
0.736491
0.716705
0.552152
0.616793
0.690544
0.766079
0.839572
0.907945
0.967748
1.01602
1.05111
1.07342
1.08436
1.0856
1.08161
1.07139
1.05628
1.0383
1.01834
0.9971
0.975096
0.952737
0.930329
0.908098
0.886208
0.864772
0.843886
0.823575
0.803945
0.784786
0.767044
0.746076
0.565516
0.663572
0.764464
0.855628
0.933632
0.998617
1.05133
1.09201
1.12089
1.13895
1.147
1.14673
1.14181
1.13078
1.11531
1.09695
1.07654
1.05473
1.03206
1.00892
0.985649
0.962475
0.939589
0.917111
0.895173
0.873761
0.853118
0.832714
0.814417
0.7912
0.59405
0.759332
0.910374
1.02869
1.11576
1.17821
1.22275
1.25311
1.27165
1.28086
1.28076
1.27549
1.26399
1.24787
1.22825
1.20609
1.18214
1.157
1.13116
1.105
1.07883
1.05287
1.02733
1.00227
0.977925
0.954086
0.931384
0.908418
0.889069
0.861925
0.664517
0.975826
1.21598
1.37035
1.46218
1.51287
1.54043
1.55157
1.55093
1.54436
1.52981
1.51038
1.48691
1.46025
1.43119
1.40044
1.36859
1.33613
1.30347
1.27093
1.23879
1.2072
1.17642
1.14633
1.11743
1.08893
1.0626
1.03469
1.01369
0.979631
0.896601
1.57466
1.95166
2.11934
2.17994
2.18183
2.16688
2.13508
2.09666
2.05577
2.0121
1.96652
1.91943
1.87161
1.82343
1.77522
1.72729
1.67994
1.63345
1.588
1.54386
1.50099
1.45982
1.41969
1.38205
1.34415
1.31119
1.27321
1.24941
1.20211
2.2513
3.88474
4.19891
4.152
4.01773
3.84999
3.69782
3.55851
3.43019
3.31091
3.19819
3.09072
2.9869
2.88865
2.79464
2.70415
2.61694
2.533
2.45241
2.37511
2.30138
2.23064
2.16402
2.09902
2.04021
1.97885
1.93008
1.86775
1.83521
1.75723
25.3733
18.8428
15.4875
13.6011
12.3882
11.529
10.8584
10.2975
9.80557
9.35985
8.94865
8.56549
8.20682
7.87145
7.55678
7.26125
6.98379
6.72345
6.4793
6.25027
6.03565
5.83379
5.64545
5.46578
5.30257
5.13726
5.00378
4.83663
4.75249
4.5371
0.554923
0.65054
0.894043
2.54461
17.879
6.76988
4.12435
2.99516
2.37396
1.98267
1.71362
1.51685
1.36641
1.24758
1.13449
1.03255
0.974438
0.924294
0.880533
0.841946
0.807605
0.776783
0.748911
0.723529
0.70034
0.677531
0.553677
0.642234
0.852097
2.20606
86.245
19.0307
6.15201
3.85807
2.85046
2.28272
1.92013
1.66892
1.48428
1.34247
1.22992
1.1199
1.01978
0.964644
0.916769
0.874756
0.837527
0.80425
0.774264
0.747053
0.722196
0.699426
0.676963
0.551397
0.629416
0.787482
1.48349
6.29178
8.69481
4.63494
3.22724
2.50539
2.06755
1.77509
1.56638
1.40977
1.28752
1.18907
1.08965
0.997335
0.947376
0.903497
0.864587
0.829782
0.798408
0.769925
0.743907
0.72
0.697992
0.676154
0.548639
0.61611
0.755086
1.09364
2.20039
6.50035
10.5101
6.86483
4.36517
3.1726
2.50521
2.08452
1.79795
1.59142
1.43585
1.31435
1.2165
1.13567
1.05096
0.97024
0.926498
0.887484
0.852389
0.820589
0.791595
0.765004
0.740497
0.7178
0.696772
0.675715
0.545733
0.601258
0.70321
0.904721
1.33241
2.01558
2.5609
2.56084
2.30662
2.0369
1.81146
1.63065
1.48591
1.3687
1.27226
1.19154
1.12285
1.06347
1.01141
0.943545
0.906113
0.872045
0.840857
0.812164
0.785652
0.761052
0.738145
0.71673
0.696748
0.67649
0.5434
0.589533
0.665985
0.79172
0.975559
1.1983
1.37183
1.44712
1.44529
1.41056
1.35378
1.29308
1.2336
1.17751
1.12555
1.07776
1.03388
0.993497
0.956084
0.921771
0.889912
0.860274
0.832628
0.806773
0.782534
0.759761
0.738327
0.718101
0.699103
0.67952
0.542211
0.583128
0.644914
0.733698
0.850008
0.980002
1.09247
1.16658
1.19912
1.20251
1.18973
1.16413
1.13323
1.09984
1.06575
1.032
0.999194
0.967606
0.937308
0.908471
0.881028
0.854932
0.830133
0.806574
0.784192
0.762916
0.742684
0.723413
0.705226
0.686062
0.542677
0.583607
0.639989
0.71208
0.797743
0.888714
0.971114
1.03421
1.0737
1.09264
1.09589
1.08931
1.07469
1.0549
1.03209
1.00758
0.982238
0.956679
0.931289
0.906369
0.882085
0.858542
0.835794
0.813874
0.792795
0.772546
0.753122
0.734457
0.716819
0.697692
0.545504
0.593175
0.652888
0.721086
0.79445
0.867782
0.93423
0.988066
1.02633
1.04962
1.06004
1.06011
1.05446
1.04216
1.02557
1.00636
0.985461
0.963555
0.941141
0.918597
0.896193
0.874121
0.852509
0.831451
0.811008
0.791208
0.772095
0.753577
0.736163
0.716543
0.552069
0.61641
0.689539
0.763882
0.835481
0.901567
0.959194
1.00582
1.04011
1.06236
1.0738
1.0758
1.07252
1.06344
1.0493
1.03223
1.01311
0.992617
0.971279
0.949508
0.927616
0.905835
0.884336
0.86324
0.842647
0.82259
0.80318
0.784208
0.766637
0.745797
0.565495
0.663478
0.764176
0.854867
0.932008
0.995817
1.04726
1.08681
1.11494
1.13261
1.14067
1.14056
1.13593
1.12539
1.11042
1.09257
1.07264
1.0513
1.02905
1.0063
0.98338
0.96052
0.937913
0.915681
0.893961
0.87274
0.852267
0.832005
0.813846
0.790729
0.594057
0.759393
0.910496
1.02875
1.11551
1.17736
1.22115
1.25068
1.26858
1.27727
1.27696
1.27153
1.25999
1.24402
1.22462
1.20271
1.17902
1.15415
1.12858
1.10267
1.07674
1.051
1.02566
1.00079
0.976606
0.952913
0.930345
0.907488
0.888253
0.861193
0.664533
0.975974
1.21637
1.37095
1.46278
1.51318
1.54024
1.55065
1.54956
1.5424
1.52728
1.5076
1.48397
1.45725
1.42821
1.39755
1.36582
1.3335
1.30101
1.26864
1.23666
1.20524
1.1746
1.14465
1.11589
1.0875
1.06128
1.03346
1.01255
0.978563
0.896614
1.57489
1.95231
2.12034
2.18109
2.1827
2.1674
2.1349
2.09585
2.05434
2.0101
1.96413
1.91679
1.8688
1.82054
1.77232
1.72444
1.67718
1.6308
1.58548
1.54147
1.49872
1.45769
1.41767
1.38015
1.34233
1.30947
1.27156
1.24783
1.20058
2.2513
3.8851
4.19976
4.15297
4.01869
3.85041
3.69755
3.55742
3.42835
3.30845
3.19524
3.08746
2.98355
2.88507
2.79096
2.70047
2.61333
2.5295
2.44905
2.3719
2.29832
2.22771
2.16122
2.09632
2.03762
1.97631
1.92762
1.86531
1.83281
1.75482
25.3732
18.8423
15.4852
13.5965
12.3808
11.5193
10.8469
10.2852
9.79317
9.34795
8.93767
8.55564
8.19815
7.86379
7.55007
7.25538
6.97863
6.71883
6.47509
6.24632
6.03186
5.83005
5.64169
5.4619
5.29857
5.133
4.99939
4.83186
4.74761
4.53172
0.551762
0.632783
0.825083
1.44834
5.59182
103.074
7.79245
4.42642
3.13196
2.44898
2.03053
1.74957
1.54827
1.39666
1.27794
1.18206
1.08716
0.998709
0.948612
0.904635
0.86564
0.830759
0.799316
0.770772
0.744699
0.720744
0.698697
0.676804
0.550635
0.626699
0.796277
1.29177
3.90184
60.2477
33.8256
6.44938
3.99459
2.92843
2.33455
1.95894
1.70141
1.51424
1.37185
1.25948
1.16817
1.07545
0.988408
0.940626
0.898441
0.860846
0.827068
0.796498
0.76865
0.743133
0.719624
0.697937
0.676342
0.548643
0.616133
0.755176
1.09415
2.20442
6.58259
10.5029
6.88959
4.37807
3.17775
2.50785
2.08609
1.79894
1.59205
1.43627
1.31462
1.21668
1.1358
1.05104
0.970294
0.926539
0.887516
0.852414
0.820609
0.791611
0.765017
0.740507
0.717809
0.696779
0.675721
0.546266
0.604072
0.713277
0.938964
1.46025
2.34315
3.57289
3.43554
2.86933
2.39679
2.04972
1.79455
1.60246
1.4539
1.33599
1.24012
1.16043
1.09288
1.01954
0.948268
0.909446
0.874326
0.842324
0.812993
0.785974
0.76097
0.737744
0.716083
0.695899
0.675512
0.543938
0.592501
0.676319
0.822759
1.05069
1.47425
1.78869
1.88775
1.8275
1.70681
1.58098
1.46626
1.36603
1.27955
1.20486
1.1399
1.0829
1.03238
0.987143
0.926513
0.892789
0.861703
0.83292
0.806174
0.781239
0.757921
0.736058
0.715496
0.696218
0.676513
0.542179
0.5838
0.649922
0.751244
0.891179
1.05059
1.18563
1.26318
1.28691
1.27776
1.24954
1.21067
1.16855
1.12611
1.08484
1.04544
1.00817
0.973057
0.939907
0.908977
0.879851
0.852434
0.8266
0.802227
0.779208
0.75744
0.736835
0.717291
0.698864
0.679722
0.541459
0.579683
0.635789
0.712945
0.810183
0.916699
1.01208
1.08025
1.1179
1.13109
1.12766
1.11357
1.09161
1.06584
1.03809
1.00957
0.981043
0.952957
0.925551
0.899084
0.873589
0.84911
0.825652
0.803208
0.781752
0.761246
0.741657
0.722918
0.705184
0.686362
0.542265
0.581729
0.635118
0.701488
0.778248
0.858718
0.932524
0.990968
1.03049
1.05247
1.06016
1.05761
1.04819
1.03263
1.0135
0.992151
0.96952
0.946264
0.922824
0.899546
0.876642
0.854257
0.832483
0.811384
0.790995
0.771327
0.752392
0.734136
0.716854
0.697986
0.545319
0.592311
0.650564
0.71594
0.784946
0.853128
0.914933
0.965655
1.00287
1.02674
1.03882
1.04096
1.03722
1.02758
1.01309
0.995799
0.976595
0.95617
0.935044
0.913611
0.892161
0.870904
0.84999
0.829527
0.809593
0.790226
0.771482
0.753273
0.736139
0.716714
0.552017
0.616154
0.688723
0.761821
0.831321
0.894695
0.949659
0.994222
1.02738
1.04939
1.06126
1.06415
1.06161
1.05384
1.04087
1.02492
1.00683
0.987264
0.966757
0.945723
0.924478
0.903264
0.882259
0.861592
0.841371
0.821635
0.802504
0.783765
0.766416
0.745721
0.565511
0.663552
0.764203
0.854517
0.930775
0.993233
1.04313
1.08126
1.10834
1.12542
1.13336
1.13339
1.129
1.11896
1.10457
1.08731
1.06798
1.04719
1.02546
1.00319
0.980695
0.958224
0.935965
0.914042
0.892595
0.871613
0.851353
0.831267
0.81329
0.790285
0.594097
0.759625
0.910987
1.02936
1.11591
1.17712
1.21999
1.24847
1.2655
1.27341
1.27275
1.26703
1.25531
1.23946
1.22025
1.1986
1.17521
1.15064
1.12538
1.09977
1.07413
1.04866
1.02356
0.998916
0.974939
0.951427
0.929029
0.906307
0.887225
0.860256
0.66457
0.976275
1.21714
1.37216
1.46415
1.51427
1.54073
1.55018
1.54844
1.54041
1.52449
1.50438
1.48041
1.45353
1.42445
1.39382
1.3622
1.33004
1.29772
1.26554
1.23376
1.20253
1.17208
1.1423
1.11371
1.08547
1.05939
1.03167
1.0109
0.976995
0.896639
1.57525
1.95334
2.12197
2.18302
2.18432
2.16856
2.13509
2.09513
2.05269
2.0076
1.96101
1.91324
1.86494
1.81649
1.7682
1.72033
1.67314
1.62688
1.58171
1.53787
1.49528
1.45442
1.41455
1.37718
1.33948
1.30676
1.26892
1.24532
1.19815
2.25131
3.8856
4.20099
4.15436
4.02008
3.85102
3.69713
3.55577
3.42555
3.30466
3.19068
3.08233
2.9782
2.87935
2.78504
2.69449
2.60742
2.52373
2.44346
2.3665
2.29313
2.2227
2.15641
2.09165
2.03312
1.97188
1.92336
1.86106
1.82864
1.7508
25.3732
18.8416
15.4819
13.5897
12.37
11.5047
10.8294
10.2659
9.77318
9.3282
8.91881
8.53808
8.18204
7.84896
7.53652
7.24302
6.96728
6.70832
6.46523
6.23695
6.02281
5.82118
5.63293
5.45307
5.28972
5.12386
4.99023
4.82226
4.73769
4.5223
0.548133
0.613354
0.743197
1.02201
1.82138
4.00097
6.00418
4.04664
3.13388
2.53238
2.12793
1.84341
1.63481
1.47631
1.35202
1.2518
1.16902
1.09918
1.03915
0.96558
0.923424
0.885607
0.851422
0.820322
0.791868
0.765699
0.74152
0.719072
0.698241
0.677286
0.547259
0.60888
0.727499
0.976546
1.61853
3.21704
4.62334
3.444
2.82741
2.35767
2.01966
1.77215
1.58567
1.44115
1.32613
1.23233
1.15415
1.0877
1.03025
0.957657
0.917198
0.880722
0.847606
0.817361
0.789597
0.763984
0.740254
0.718171
0.69764
0.676933
0.54574
0.601296
0.703346
0.90526
1.33471
2.02394
2.56936
2.56773
2.31178
2.04024
1.81361
1.63209
1.4869
1.3694
1.27276
1.1919
1.12311
1.06366
1.01155
0.943641
0.906188
0.872104
0.840904
0.812202
0.785683
0.761077
0.738165
0.716748
0.696763
0.676501
0.543942
0.592518
0.676372
0.822925
1.05117
1.47568
1.79041
1.88927
1.82882
1.70782
1.58171
1.46678
1.36641
1.27983
1.20506
1.14006
1.08302
1.03246
0.987209
0.926558
0.892825
0.861732
0.832943
0.806193
0.781255
0.757934
0.736068
0.715505
0.696226
0.676519
0.542256
0.584402
0.652566
0.759462
0.909816
1.15166
1.34939
1.45419
1.46906
1.43346
1.37567
1.31212
1.24949
1.19064
1.13646
1.08691
1.04164
1.00018
0.96206
0.909806
0.879936
0.85197
0.825717
0.801027
0.777767
0.755812
0.735058
0.715401
0.69688
0.677728
0.54109
0.578674
0.635706
0.717189
0.822991
0.940063
1.04443
1.11581
1.15184
1.1602
1.15185
1.13179
1.1051
1.07532
1.0443
1.01315
0.982517
0.952771
0.924035
0.896621
0.870354
0.845276
0.82136
0.798566
0.776847
0.756149
0.736424
0.717602
0.699788
0.681078
0.540846
0.576808
0.62795
0.695066
0.776161
0.863225
0.943211
1.0049
1.04459
1.06452
1.06919
1.06374
1.0506
1.03212
1.01059
0.987289
0.963104
0.938625
0.914228
0.890239
0.866804
0.844037
0.822005
0.800746
0.780273
0.760583
0.741673
0.723494
0.706246
0.687748
0.541994
0.580405
0.631322
0.692708
0.761564
0.832503
0.898073
0.951749
0.990435
1.01443
1.02577
1.02691
1.02188
1.0107
0.995196
0.977055
0.957205
0.936329
0.914921
0.893363
0.871909
0.850746
0.830003
0.809769
0.790107
0.771048
0.752627
0.734794
0.717893
0.699259
0.545269
0.591985
0.649261
0.712323
0.777439
0.840765
0.898019
0.945513
0.981314
1.00534
1.01868
1.02272
1.02062
1.0135
1.00112
0.985752
0.968268
0.949362
0.929564
0.909282
0.888824
0.868418
0.848232
0.828389
0.808983
0.790064
0.771702
0.753808
0.736971
0.717709
0.552088
0.616398
0.688867
0.76118
0.828962
0.88986
0.942174
0.984551
1.01635
1.03784
1.04989
1.05348
1.05154
1.04491
1.03308
1.01821
1.00112
0.982481
0.96281
0.94252
0.921934
0.901297
0.880795
0.860566
0.840723
0.821313
0.802465
0.783958
0.766846
0.746263
0.565627
0.664064
0.76511
0.855492
0.93123
0.992551
1.04095
1.07756
1.10343
1.11967
1.12727
1.12727
1.12296
1.11323
1.09932
1.08259
1.06378
1.04351
1.02227
1.00046
0.978394
0.956305
0.934391
0.912774
0.8916
0.870856
0.850811
0.830895
0.813114
0.790188
0.594208
0.760218
0.912255
1.0312
1.11788
1.17867
1.22066
1.24801
1.26399
1.27087
1.26971
1.26342
1.25137
1.23544
1.21629
1.19479
1.1716
1.14728
1.12228
1.09694
1.07156
1.04634
1.02149
0.997059
0.973286
0.949955
0.927731
0.905136
0.886229
0.859324
0.664652
0.976854
1.21857
1.37444
1.46693
1.51695
1.54282
1.55117
1.54864
1.53937
1.52256
1.50172
1.47719
1.44994
1.42065
1.38993
1.35831
1.32623
1.29404
1.26201
1.23041
1.19935
1.16909
1.13948
1.11106
1.08296
1.05704
1.02943
1.00882
0.974988
0.896682
1.57582
1.95491
2.12445
2.18605
2.1871
2.17081
2.13619
2.09505
2.05134
2.00514
1.95765
1.90919
1.86036
1.81157
1.76307
1.71512
1.66794
1.62176
1.57671
1.53302
1.49061
1.44992
1.41021
1.37302
1.33545
1.30291
1.26516
1.24169
1.19469
2.25132
3.88626
4.20257
4.15616
4.0219
3.85182
3.69655
3.55353
3.42171
3.29937
3.18425
3.07503
2.97044
2.87101
2.77636
2.68567
2.59861
2.51503
2.43495
2.35823
2.28511
2.21493
2.14888
2.08433
2.02603
1.96494
1.91659
1.85451
1.82176
1.74509
25.3732
18.8407
15.4778
13.5809
12.3555
11.4849
10.805
10.2382
9.7437
9.29819
8.88921
8.50954
8.15491
7.82323
7.51227
7.22021
6.94578
6.68798
6.44585
6.21835
6.00483
5.80365
5.61571
5.43606
5.27276
5.10717
4.97235
4.80895
4.70571
4.51898
0.545063
0.597475
0.689152
0.855271
1.12435
1.59639
1.96808
1.77947
1.70554
1.6046
1.50197
1.40654
1.32102
1.2454
1.17869
1.11963
1.06703
1.01984
0.976984
0.938384
0.903096
0.870692
0.840804
0.813125
0.787395
0.763397
0.740955
0.7199
0.700213
0.680068
0.544457
0.594554
0.680405
0.830206
1.06432
1.47917
1.80455
1.64653
1.60748
1.53107
1.447
1.36496
1.28926
1.22089
1.15958
1.10462
1.05516
1.01042
0.969509
0.932438
0.898369
0.866947
0.837853
0.810819
0.785615
0.762049
0.739962
0.719199
0.699754
0.679808
0.543409
0.589575
0.666112
0.792086
0.976466
1.19995
1.37386
1.4491
1.44713
1.41206
1.35495
1.29397
1.23429
1.17804
1.12596
1.07808
1.03413
0.993692
0.956238
0.921893
0.890009
0.860353
0.832692
0.806825
0.782577
0.759797
0.738357
0.718126
0.699125
0.679537
0.542184
0.583823
0.649989
0.751417
0.89157
1.05127
1.18647
1.26404
1.28773
1.27848
1.25013
1.21114
1.16892
1.12641
1.08508
1.04563
1.00832
0.973176
0.940003
0.909054
0.879913
0.852484
0.826641
0.802261
0.779236
0.757464
0.736856
0.717308
0.698879
0.679734
0.541092
0.578684
0.635731
0.717246
0.823109
0.940266
1.04469
1.11608
1.15211
1.16045
1.15206
1.13196
1.10524
1.07544
1.04439
1.01322
0.98258
0.952823
0.924078
0.896656
0.870382
0.8453
0.82138
0.798582
0.776861
0.756161
0.736434
0.71761
0.699795
0.681084
0.540457
0.575486
0.626172
0.69393
0.776984
0.866752
0.949232
1.01216
1.05182
1.0708
1.07414
1.06741
1.05272
1.03305
1.01051
0.986384
0.961539
0.93655
0.911761
0.887499
0.863856
0.840931
0.81878
0.797437
0.776913
0.757197
0.73828
0.720113
0.702866
0.684478
0.540633
0.575543
0.623535
0.683605
0.753092
0.826066
0.893994
0.949284
0.988545
1.01221
1.02272
1.02287
1.01682
1.00443
0.988139
0.969344
0.948985
0.927727
0.906045
0.884311
0.862756
0.841554
0.820821
0.800639
0.781061
0.762112
0.743813
0.726131
0.709326
0.691046
0.542073
0.580463
0.630257
0.688394
0.751511
0.81514
0.873918
0.923129
0.960248
0.98505
0.99874
1.00292
1.00069
0.993367
0.980971
0.965605
0.94819
0.929426
0.909832
0.88981
0.869655
0.849587
0.829765
0.810305
0.79129
0.772771
0.754799
0.737329
0.72077
0.702265
0.545521
0.592857
0.650267
0.712275
0.77479
0.834379
0.88777
0.932272
0.966418
0.990074
1.00404
1.0094
1.00843
1.00322
0.992631
0.978854
0.962824
0.945218
0.926564
0.907277
0.887678
0.868009
0.848452
0.829145
0.810192
0.791653
0.773614
0.755976
0.739403
0.720202
0.552411
0.617673
0.691003
0.763543
0.830551
0.889741
0.939885
0.980206
1.01049
1.03113
1.04294
1.04683
1.0452
1.03926
1.02824
1.01418
0.997881
0.97997
0.960967
0.941279
0.921227
0.901061
0.880972
0.861099
0.841566
0.822419
0.8038
0.785466
0.768567
0.747998
0.56594
0.665439
0.767733
0.859065
0.93505
0.995809
1.04305
1.07823
1.10279
1.11792
1.12484
1.12456
1.11999
1.1102
1.0965
1.08005
1.06156
1.04163
1.02073
0.999241
0.977478
0.955673
0.934018
0.912633
0.891669
0.871105
0.85123
0.83143
0.813832
0.790896
0.594459
0.761492
0.914959
1.03525
1.12274
1.18358
1.22494
1.25117
1.26599
1.27155
1.26966
1.26246
1.24982
1.23347
1.2141
1.19251
1.16933
1.14508
1.1202
1.095
1.06978
1.04473
1.02003
0.995764
0.972144
0.948945
0.926863
0.90435
0.885615
0.858701
0.664816
0.977932
1.22115
1.37853
1.47207
1.52234
1.54778
1.55496
1.55148
1.54067
1.52271
1.50078
1.4754
1.44748
1.41771
1.38668
1.35488
1.32271
1.29051
1.25853
1.22702
1.19607
1.16593
1.13646
1.10818
1.0802
1.05442
1.02688
1.00645
0.972627
0.896761
1.57672
1.9573
2.12825
2.19076
2.19171
2.17488
2.13894
2.09635
2.05099
2.00334
1.95458
1.90511
1.85548
1.80608
1.75718
1.70898
1.66168
1.61549
1.57049
1.52691
1.48462
1.44409
1.40454
1.36753
1.3301
1.29774
1.2601
1.23679
1.18981
2.25134
3.8871
4.2046
4.15848
4.02423
3.85286
3.69577
3.55059
3.41663
3.29232
3.17556
3.06506
2.95967
2.85942
2.76422
2.67324
2.5861
2.50259
2.4227
2.34622
2.27339
2.2035
2.13778
2.0735
2.01552
1.95463
1.90659
1.84457
1.81242
1.73476
25.3732
18.8397
15.4727
13.5698
12.3368
11.4586
10.7719
10.1999
9.70182
9.25444
8.84492
8.46571
8.11219
7.78183
7.47245
7.18204
6.90925
6.65297
6.41221
6.18591
5.97343
5.77309
5.58592
5.40674
5.24412
5.07835
4.94537
4.77691
4.69292
4.47638
0.54327
0.587993
0.657952
0.764439
0.911897
1.07621
1.21329
1.2998
1.31861
1.30525
1.27306
1.23199
1.18809
1.14414
1.10155
1.06095
1.0226
0.986536
0.952589
0.920783
0.890918
0.862828
0.836379
0.811454
0.787938
0.765721
0.744707
0.724786
0.706049
0.686441
0.542883
0.586209
0.653121
0.752827
0.88812
1.03754
1.16465
1.24872
1.27426
1.26711
1.24283
1.20751
1.16839
1.12829
1.08878
1.05064
1.01427
0.979799
0.947147
0.916391
0.887382
0.859993
0.834125
0.80968
0.786562
0.764675
0.743936
0.724243
0.705698
0.686248
0.542219
0.583165
0.645015
0.733944
0.850521
0.980842
1.09355
1.16773
1.20023
1.2035
1.19059
1.16483
1.13379
1.1003
1.06612
1.03231
0.999439
0.967805
0.93747
0.908604
0.881137
0.855022
0.830208
0.806636
0.784244
0.762959
0.742721
0.723445
0.705253
0.686084
0.541464
0.579707
0.635851
0.713087
0.810463
0.917149
1.01265
1.08087
1.11853
1.13166
1.12817
1.114
1.09197
1.06614
1.03834
1.00977
0.98121
0.953095
0.925665
0.899179
0.873667
0.849175
0.825707
0.803253
0.78179
0.761279
0.741685
0.722942
0.705204
0.686379
0.540849
0.57682
0.627981
0.695134
0.776288
0.863425
0.943468
1.00518
1.04488
1.0648
1.06944
1.06396
1.05079
1.03229
1.01073
0.987404
0.963201
0.938706
0.914296
0.890295
0.866851
0.844077
0.822039
0.800774
0.780297
0.760604
0.74169
0.723509
0.706259
0.687759
0.540634
0.575548
0.623547
0.683628
0.753134
0.82613
0.894076
0.949378
0.988643
1.0123
1.02281
1.02295
1.0169
1.0045
0.988193
0.969391
0.949025
0.927761
0.906073
0.884335
0.862777
0.841572
0.820836
0.800652
0.781072
0.762121
0.743821
0.726138
0.709332
0.69105
0.54113
0.577059
0.624626
0.681309
0.743887
0.807727
0.867093
0.91689
0.954407
0.979378
0.993078
0.997199
0.994848
0.987354
0.974894
0.959466
0.942017
0.923246
0.903673
0.8837
0.863617
0.843638
0.823915
0.804562
0.785661
0.767261
0.749406
0.732064
0.715591
0.697322
0.542778
0.582947
0.633805
0.691196
0.751297
0.810236
0.864071
0.909491
0.944632
0.969169
0.98387
0.989898
0.989241
0.984464
0.97439
0.960989
0.945346
0.928135
0.909885
0.891009
0.871823
0.852567
0.83342
0.814517
0.795958
0.777808
0.760135
0.742884
0.726569
0.708
0.546317
0.595855
0.655255
0.718149
0.779953
0.837411
0.888027
0.929964
0.962299
0.985031
0.99885
1.0047
1.00424
0.999998
0.990598
0.977799
0.962711
0.945967
0.928081
0.909466
0.890444
0.871267
0.852124
0.83316
0.81449
0.79618
0.778328
0.760813
0.744423
0.725101
0.55319
0.62079
0.696616
0.771011
0.838689
0.897301
0.946011
0.984583
1.01327
1.03267
1.0437
1.04726
1.04552
1.03957
1.02885
1.01513
0.999184
0.981636
0.96298
0.943612
0.923849
0.903937
0.884068
0.864383
0.845007
0.825986
0.807478
0.789198
0.772443
0.751722
0.566615
0.668363
0.773364
0.867087
0.944527
1.00559
1.05218
1.08612
1.10925
1.12298
1.12875
1.12781
1.12248
1.11208
1.09815
1.08157
1.06304
1.04311
1.02226
1.00085
0.979178
0.957465
0.935901
0.9146
0.893714
0.873212
0.853408
0.833617
0.816154
0.79306
0.594969
0.764006
0.920192
1.04311
1.13245
1.19403
1.23511
1.26029
1.2738
1.27769
1.27476
1.26615
1.25248
1.23526
1.21527
1.19322
1.16972
1.14526
1.12023
1.09496
1.06971
1.04465
1.01999
0.99575
0.972177
0.949014
0.927001
0.904478
0.885895
0.858847
0.665136
0.979925
1.22573
1.38572
1.48114
1.53216
1.55735
1.56327
1.55869
1.54596
1.52644
1.50299
1.4763
1.4473
1.41669
1.38501
1.35274
1.32024
1.28782
1.25571
1.22413
1.19316
1.16305
1.13361
1.1054
1.07747
1.05181
1.02428
1.00402
0.970142
0.896909
1.57821
1.96112
2.13423
2.19819
2.19924
2.18182
2.14436
2.09994
2.05247
2.00291
1.95242
1.90152
1.8507
1.80037
1.75078
1.7021
1.6545
1.60813
1.56307
1.5195
1.47728
1.43687
1.39743
1.3606
1.32329
1.29113
1.25359
1.23043
1.1836
2.25137
3.88825
4.20734
4.16158
4.02735
3.85429
3.6948
3.54679
3.40999
3.28302
3.16402
3.05172
2.94506
2.84369
2.7477
2.65625
2.5689
2.4854
2.40567
2.32944
2.25695
2.18741
2.1221
2.05815
2.00061
1.93999
1.89235
1.83063
1.79858
1.72155
25.3732
18.8385
15.4663
13.5555
12.3124
11.4236
10.7271
10.1471
9.6432
9.19213
8.78074
8.40109
8.04819
7.71898
7.41124
7.12274
6.85197
6.59768
6.35884
6.1343
5.92345
5.72454
5.53872
5.36058
5.19914
5.03402
4.90204
4.73416
4.65063
4.4351
0.543297
0.5864
0.647115
0.727554
0.82648
0.932254
1.02643
1.09625
1.1342
1.14765
1.14417
1.13081
1.10932
1.08383
1.05615
1.02753
0.998745
0.970284
0.94245
0.915481
0.889484
0.864507
0.840559
0.81763
0.795703
0.774741
0.754718
0.735549
0.717478
0.698005
0.543069
0.585372
0.644489
0.721821
0.815758
0.915792
1.00556
1.07324
1.1121
1.12773
1.12663
1.1161
1.09698
1.07354
1.04761
1.02046
0.992899
0.965458
0.938484
0.912236
0.886841
0.862366
0.838839
0.816263
0.794633
0.773921
0.754107
0.735115
0.717194
0.697844
0.542683
0.583636
0.640064
0.712245
0.798053
0.889197
0.97174
1.03492
1.07441
1.09331
1.0965
1.08985
1.07514
1.05528
1.03241
1.00785
0.982465
0.956869
0.931449
0.906502
0.882197
0.858636
0.835874
0.813942
0.792852
0.772595
0.753164
0.734493
0.71685
0.697718
0.542269
0.581749
0.635169
0.701594
0.778443
0.859018
0.932912
0.991408
1.03095
1.05291
1.06056
1.05798
1.0485
1.0329
1.01373
0.992349
0.969688
0.946406
0.922944
0.899647
0.876728
0.85433
0.832545
0.811436
0.79104
0.771365
0.752425
0.734164
0.716878
0.698007
0.541997
0.580417
0.631352
0.692769
0.761671
0.832666
0.898285
0.951993
0.990692
1.01468
1.02601
1.02713
1.02208
1.01087
0.995345
0.977184
0.957315
0.936423
0.915002
0.893432
0.871968
0.850797
0.830046
0.809806
0.790138
0.771075
0.75265
0.734814
0.71791
0.699273
0.542075
0.58047
0.630272
0.688423
0.751562
0.815215
0.874017
0.923244
0.960372
0.985175
0.998861
1.00303
1.00079
0.99346
0.981052
0.965676
0.948252
0.929479
0.909878
0.889849
0.869689
0.849617
0.82979
0.810326
0.791309
0.772787
0.754813
0.737341
0.72078
0.702273
0.542778
0.582949
0.63381
0.691206
0.751314
0.810262
0.864104
0.909531