/*--------------------------------*- C++ -*----------------------------------*\
  =========                 |
  \\      /  F ield         | OpenFOAM: The Open Source CFD Toolbox
   \\    /   O peration     | Website:  https://openfoam.org
    \\  /    A nd           | Version:  7
     \\/     M anipulation  |
\*---------------------------------------------------------------------------*/
FoamFile
{
    version     2.0;
    format      ascii;
    class       volScalarField;
    location    "500";
    object      p;
}
// * * * * * * * * * * * * * * * * * * * * * * * * * * * * * * * * * * * * * //

dimensions      [0 2 -2 0 0 0 0];

internalField   nonuniform List<scalar> 
27370
(
121.302
190.909
291.684
500.955
-40.9814
-25.2323
-15.6032
-9.33594
-5.16874
-2.51244
-0.895006
0.0464748
0.566594
0.920851
0.983463
0.820935
0.804554
0.748073
0.672567
0.598527
0.52822
0.457995
0.417128
0.29214
0.619079
105.116
157.843
259.482
435.151
-40.3443
-24.0108
-14.6242
-8.67155
-4.78243
-2.30656
-0.791272
0.0955641
0.584817
0.899668
0.974228
0.832903
0.804052
0.745154
0.668849
0.5941
0.523353
0.454112
0.408357
0.302846
0.571532
85.7648
109.436
192.284
315.85
-55.1977
-34.2462
-20.1039
-12.1139
-7.14536
-3.92274
-1.85166
-0.564141
0.200214
0.622752
0.869909
0.946237
0.829652
0.791468
0.72953
0.653956
0.580033
0.51014
0.442114
0.394593
0.294528
0.534921
68.5461
71.1749
110.309
183.706
206.242
-163.985
-54.4569
-28.6823
-16.2523
-9.49004
-5.47213
-2.93874
-1.31758
-0.299697
0.313031
0.654518
0.809009
0.896266
0.811553
0.76723
0.702901
0.629535
0.557744
0.48973
0.423535
0.375068
0.278977
0.48701
52.627
51.4873
59.7682
85.7613
69.4289
11.811
-65.0219
-61.1761
-34.775
-19.7506
-11.3083
-6.44516
-3.55099
-1.76818
-0.651345
0.0413465
0.453924
0.666117
0.740796
0.82767
0.774329
0.728379
0.663904
0.594523
0.526494
0.461729
0.398391
0.349821
0.258359
0.429424
38.3356
37.4355
37.2408
35.0512
20.6438
-2.08529
-28.0581
-26.8258
-18.1292
-10.9471
-6.46116
-3.64541
-1.86405
-0.742072
-0.042129
0.381209
0.621142
0.729043
0.78696
0.764283
0.723684
0.673001
0.61246
0.549051
0.486445
0.426407
0.367145
0.319516
0.233798
0.365937
26.964
25.8171
23.9974
20.1542
11.5598
-5.09757
-13.9764
-16.1955
-11.5646
-7.55464
-4.727
-2.73715
-1.40195
-0.533415
0.0199412
0.360014
0.55601
0.650429
0.678014
0.682187
0.647528
0.601961
0.549323
0.493761
0.438257
0.384411
0.330525
0.285082
0.206526
0.300118
18.7631
17.5121
15.3318
10.9844
4.93187
-3.56106
-8.55832
-9.67039
-7.48739
-5.24731
-3.4189
-2.02628
-1.04443
-0.384058
0.0473679
0.317669
0.476075
0.556344
0.586268
0.583922
0.556593
0.519488
0.47611
0.429755
0.382779
0.336474
0.289302
0.247485
0.177719
0.235348
13.2179
11.9007
9.62782
5.70158
1.31738
-3.41083
-5.95568
-6.42197
-5.21207
-3.80762
-2.56767
-1.57722
-0.846969
-0.337186
0.00594634
0.227549
0.361952
0.434453
0.465662
0.468572
0.452295
0.426007
0.393543
0.357805
0.320675
0.283197
0.2441
0.207514
0.148336
0.174561
9.76012
8.35593
6.04976
2.70827
-0.441808
-3.20316
-4.54071
-4.65995
-3.87346
-2.92402
-2.04914
-1.32444
-0.770742
-0.368589
-0.0881295
0.100217
0.220525
0.291364
0.327767
0.340343
0.33643
0.322588
0.302443
0.278509
0.252367
0.224906
0.195237
0.165608
0.118981
0.120019
7.8682
6.36026
4.05035
1.28014
-1.02309
-2.7444
-3.51758
-3.52415
-3.00574
-2.35654
-1.73362
-1.19957
-0.775578
-0.454322
-0.220188
-0.0549468
0.0578002
0.131218
0.176062
0.200411
0.210086
0.21
0.203281
0.192122
0.177935
0.161557
0.142616
0.121717
0.0897646
0.0731773
7.07135
5.48695
3.27742
1.04553
-0.707763
-1.9412
-2.53422
-2.60897
-2.33572
-1.93645
-1.52117
-1.14398
-0.826905
-0.573161
-0.377249
-0.229722
-0.120939
-0.0425511
0.0125512
0.0500352
0.0742449
0.0888134
0.0963078
0.0986505
0.0971684
0.0927421
0.0856852
0.0752222
0.0601549
0.0345785
6.94525
5.39361
3.47043
1.7134
0.276882
-0.802579
-1.44974
-1.71799
-1.71021
-1.55714
-1.34144
-1.11235
-0.896732
-0.707298
-0.547618
-0.416427
-0.310591
-0.226483
-0.160471
-0.109266
-0.0700756
-0.0403971
-0.0182589
-0.00199546
0.00967899
0.0177617
0.0234454
0.0248798
0.0287624
0.00367736
7.07112
5.78603
4.32551
2.94109
1.66076
0.563571
-0.253037
-0.778933
-1.05629
-1.1591
-1.14944
-1.07338
-0.963771
-0.842086
-0.721214
-0.608231
-0.506598
-0.417592
-0.341165
-0.276521
-0.222526
-0.177808
-0.141029
-0.110831
-0.0859389
-0.0652507
-0.046506
-0.0321696
-0.00809936
-0.0224054
7.01564
6.30555
5.33947
4.24038
3.07091
1.93682
0.951822
0.179196
-0.369425
-0.722044
-0.918932
-1.00045
-1.00256
-0.954219
-0.877016
-0.786156
-0.691792
-0.600325
-0.515464
-0.439049
-0.371697
-0.313231
-0.26296
-0.219949
-0.182892
-0.150681
-0.120124
-0.09294
-0.0505184
-0.0464903
6.89506
6.60511
5.99612
5.12823
4.09383
2.99409
1.94019
1.02322
0.291618
-0.248053
-0.614105
-0.836056
-0.946815
-0.977459
-0.954162
-0.897361
-0.822162
-0.73919
-0.655509
-0.575507
-0.501647
-0.435074
-0.375959
-0.323982
-0.278108
-0.237361
-0.198317
-0.161618
-0.10532
-0.0796973
105.067
157.855
259.28
434.354
-40.0515
-23.8454
-14.5804
-8.66057
-4.77951
-2.30574
-0.791089
0.0955713
0.584779
0.899643
0.974226
0.832904
0.804058
0.745166
0.668865
0.594119
0.523372
0.45413
0.408372
0.302857
0.571543
93.5011
130.126
228.189
381.39
-38.1574
-22.3808
-13.5561
-8.02029
-4.41767
-2.11454
-0.695358
0.140233
0.601575
0.881985
0.962415
0.839949
0.801098
0.740305
0.663758
0.588689
0.517792
0.449504
0.399779
0.313718
0.521666
78.4301
91.656
167.336
266.607
377.51
-56.8508
-32.6566
-19.0086
-11.349
-6.65668
-3.63766
-1.69745
-0.486605
0.235373
0.634887
0.854968
0.933175
0.831304
0.785971
0.722971
0.64759
0.57374
0.503979
0.436999
0.38607
0.304574
0.486969
63.0423
63.4751
90.5109
158.859
168.094
23.9879
-139.36
-52.3995
-27.6282
-15.5905
-9.03457
-5.16923
-2.75202
-1.21144
-0.244585
0.337998
0.662691
0.800061
0.882936
0.807093
0.75871
0.694289
0.621524
0.55026
0.482723
0.417743
0.366484
0.287381
0.443399
48.609
47.5189
52.2714
74.4582
59.622
1.08684
-55.9858
-54.6131
-32.5238
-18.8009
-10.8281
-6.16854
-3.38425
-1.67101
-0.599599
0.0645559
0.460436
0.666186
0.733624
0.816471
0.764555
0.717067
0.653379
0.584945
0.517849
0.453881
0.39193
0.34122
0.2649
0.390875
35.61
34.6184
33.7257
29.8683
17.0895
-1.15925
-24.6797
-24.0362
-16.624
-10.2225
-6.06307
-3.41905
-1.73719
-0.675312
-0.0126763
0.388109
0.614851
0.717674
0.776295
0.750368
0.709751
0.659598
0.600251
0.538126
0.476788
0.417819
0.360092
0.310984
0.238386
0.332904
25.2085
24.0531
22.0492
17.7785
9.60787
-4.87896
-12.6595
-14.6586
-10.7612
-7.1025
-4.45418
-2.58098
-1.31577
-0.489804
0.0368413
0.360454
0.546566
0.635684
0.660668
0.6642
0.631439
0.587012
0.535833
0.481829
0.427822
0.375253
0.323009
0.27673
0.209168
0.272792
17.6537
16.4557
14.2686
9.98208
4.15718
-3.4968
-7.98204
-8.97888
-7.08167
-4.99656
-3.27048
-1.94773
-1.00795
-0.372925
0.0429652
0.304277
0.457899
0.53617
0.565218
0.564273
0.538959
0.503447
0.461819
0.4172
0.37186
0.326977
0.281499
0.239439
0.178528
0.213622
12.5275
11.2951
9.08639
5.29514
1.07046
-3.26823
-5.6438
-6.06402
-4.98264
-3.66461
-2.48569
-1.53798
-0.834805
-0.341286
-0.0078876
0.208412
0.34042
0.412483
0.444289
0.448577
0.434157
0.40967
0.379046
0.345083
0.309626
0.273636
0.236218
0.199908
0.147523
0.158072
9.33013
8.02573
5.8081
2.59667
-0.453402
-3.0436
-4.32674
-4.44489
-3.73089
-2.83536
-2.00044
-1.30461
-0.769635
-0.379004
-0.105218
0.0796565
0.198643
0.269594
0.306937
0.320926
0.318779
0.306714
0.288336
0.266102
0.241573
0.215586
0.187512
0.15858
0.116841
0.108208
7.59043
6.18929
3.97475
1.30982
-0.930802
-2.5831
-3.34793
-3.37365
-2.90349
-2.29266
-1.69924
-1.18679
-0.777108
-0.464963
-0.236164
-0.0737132
0.0379697
0.111481
0.157121
0.182695
0.193866
0.19533
0.190169
0.180529
0.167805
0.152806
0.135305
0.115415
0.0866636
0.0653549
6.87633
5.40045
3.28154
1.12453
-0.588561
-1.79432
-2.39386
-2.49144
-2.25286
-1.88283
-1.49075
-1.13083
-0.82578
-0.579999
-0.38902
-0.244301
-0.136838
-0.0587445
-0.0032706
0.0350108
0.0602876
0.0760408
0.0847745
0.0883643
0.088116
0.0849026
0.0790665
0.0698058
0.0565196
0.0299917
6.79098
5.34412
3.49558
1.78736
0.379546
-0.684928
-1.33802
-1.62366
-1.63968
-1.50828
-1.31065
-1.09564
-0.890419
-0.708286
-0.553506
-0.425435
-0.321409
-0.238167
-0.172362
-0.120914
-0.0811726
-0.0507601
-0.027773
-0.010597
0.00202482
0.0110984
0.0177389
0.0204454
0.0250057
0.00154053
6.93558
5.73833
4.32946
2.97841
1.72347
0.641815
-0.173105
-0.706685
-0.997374
-1.11426
-1.11753
-1.05243
-0.951534
-0.836464
-0.720427
-0.610848
-0.511501
-0.423929
-0.348299
-0.283986
-0.229981
-0.185015
-0.14782
-0.117091
-0.0915875
-0.0701893
-0.0507945
-0.0352758
-0.011306
-0.0227037
6.91028
6.23604
5.30155
4.22873
3.08365
1.96924
0.995828
0.227161
-0.323504
-0.681518
-0.885347
-0.974139
-0.983047
-0.940629
-0.86833
-0.781369
-0.689992
-0.600729
-0.517422
-0.442042
-0.375315
-0.317157
-0.266954
-0.223824
-0.186518
-0.153912
-0.122992
-0.0949658
-0.0529021
-0.0459344
6.80543
6.52157
5.93005
5.08073
4.06568
2.98508
1.94719
1.04145
0.316127
-0.221253
-0.58787
-0.812234
-0.926378
-0.960718
-0.94101
-0.88745
-0.815029
-0.734338
-0.652462
-0.573835
-0.50098
-0.435101
-0.376426
-0.324679
-0.278871
-0.238033
-0.198842
-0.161738
-0.105642
-0.0785546
85.7442
109.515
192.38
316.172
-54.5094
-34.0297
-19.9656
-12.0538
-7.12316
-3.91498
-1.84901
-0.563279
0.200448
0.622776
0.869899
0.946263
0.82968
0.791501
0.729575
0.654009
0.580091
0.510198
0.442167
0.394638
0.294559
0.534952
78.4329
91.7052
167.479
267.015
378.427
-57.3754
-32.595
-18.9525
-11.319
-6.64408
-3.63284
-1.69569
-0.486003
0.235544
0.634905
0.854964
0.9332
0.831328
0.785998
0.723004
0.647627
0.573779
0.504017
0.437034
0.3861
0.304594
0.486988
67.5509
69.263
121.638
186.255
225.559
-55.568
-29.4346
-16.7379
-9.78417
-5.64625
-3.03639
-1.36702
-0.320177
0.308738
0.656581
0.827253
0.90226
0.816246
0.767041
0.703279
0.62966
0.557514
0.489259
0.423839
0.372151
0.295161
0.454045
54.6271
53.2217
64.7341
109.41
91.1094
20.7088
-93.7828
-89.9141
-46.4845
-24.9756
-14.0525
-8.04157
-4.52655
-2.36003
-0.991903
-0.13521
0.381798
0.668912
0.772702
0.85042
0.78538
0.735493
0.671864
0.601464
0.532422
0.466819
0.403733
0.352245
0.277712
0.412848
42.2801
40.9525
42.0169
43.8317
46.7984
0.0425812
-39.8707
-42.3141
-27.7679
-16.683
-9.76059
-5.57528
-3.03961
-1.47624
-0.500448
0.103663
0.463911
0.650979
0.702707
0.782142
0.736946
0.689932
0.628401
0.562855
0.498442
0.43681
0.377092
0.326723
0.255036
0.363162
31.2407
30.1154
28.84
25.6397
12.6056
-5.62967
-19.0185
-19.9702
-14.2624
-9.01348
-5.42945
-3.07791
-1.55885
-0.592242
0.0133501
0.38076
0.589231
0.684354
0.738978
0.71391
0.677035
0.629445
0.573189
0.51435
0.45606
0.399762
0.344567
0.296364
0.228429
0.308329
22.3839
21.2788
19.3469
15.0178
7.1903
-3.64755
-11.0941
-12.3242
-9.40281
-6.37506
-4.04836
-2.36456
-1.21089
-0.450469
0.0372869
0.338546
0.512765
0.596972
0.62096
0.624709
0.595823
0.554934
0.507338
0.456885
0.406166
0.356508
0.307029
0.262172
0.199242
0.251492
15.8778
14.7993
12.7747
8.7151
3.18761
-3.16743
-7.10881
-7.87734
-6.38278
-4.58904
-3.04177
-1.83606
-0.96722
-0.373447
0.0184726
0.266932
0.414714
0.491637
0.52173
0.523337
0.502098
0.47048
0.432671
0.391722
0.349776
0.307937
0.265366
0.225159
0.168769
0.195583
11.4333
10.3439
8.33424
4.80669
0.839043
-2.97852
-5.1332
-5.49508
-4.5933
-3.42895
-2.35777
-1.48396
-0.827668
-0.361445
-0.0435475
0.164978
0.294206
0.366654
0.400601
0.408086
0.397603
0.377015
0.350179
0.319818
0.287709
0.254769
0.220291
0.186147
0.13808
0.143159
8.66284
7.50993
5.49136
2.5013
-0.368479
-2.73378
-3.95172
-4.08552
-3.48164
-2.68403
-1.92173
-1.27733
-0.775639
-0.405118
-0.142548
0.0368664
0.154225
0.226007
0.265606
0.282661
0.284075
0.275607
0.260739
0.241855
0.220476
0.197413
0.17219
0.1456
0.107875
0.0961973
7.17464
5.92687
3.89648
1.40457
-0.719097
-2.27849
-3.03927
-3.10772
-2.71814
-2.17857
-1.6397
-1.1667
-0.783308
-0.487699
-0.268464
-0.110876
-0.000869044
0.0730573
0.120398
0.148431
0.162502
0.166992
0.164846
0.158136
0.148219
0.135888
0.121026
0.103501
0.0783539
0.0559733
6.59517
5.26825
3.30891
1.27985
-0.35657
-1.52285
-2.1362
-2.27745
-2.09927
-1.78352
-1.43461
-1.10682
-0.824257
-0.593372
-0.411647
-0.272185
-0.167178
-0.0896278
-0.0334414
0.00635095
0.0336323
0.0516308
0.0627107
0.0686632
0.0707503
0.0698276
0.0663011
0.0592715
0.0490742
0.0229514
6.56993
5.25838
3.53588
1.91846
0.566385
-0.472639
-1.13452
-1.45059
-1.50787
-1.41597
-1.25168
-1.06291
-0.87724
-0.708992
-0.563628
-0.441613
-0.341161
-0.259699
-0.194411
-0.142607
-0.101917
-0.0701855
-0.0456508
-0.0267938
-0.0124134
-0.00152961
0.00698779
0.011645
0.0186715
-0.00342946
6.73449
5.64341
4.32253
3.03665
1.82958
0.776878
-0.031618
-0.576062
-0.888108
-1.02922
-1.05547
-1.01033
-0.925693
-0.823259
-0.716674
-0.613912
-0.519275
-0.434769
-0.360954
-0.297519
-0.243698
-0.198419
-0.160556
-0.128907
-0.1023
-0.0796546
-0.0588996
-0.0418434
-0.0161305
-0.0257694
6.72448
6.1078
5.22752
4.20285
3.10128
2.02198
1.07053
0.310505
-0.242225
-0.608793
-0.824316
-0.92568
-0.946569
-0.914747
-0.851343
-0.771548
-0.685736
-0.600636
-0.520316
-0.446963
-0.381497
-0.324002
-0.273997
-0.230707
-0.192964
-0.159694
-0.127953
-0.0988939
-0.0558133
-0.0472219
6.63232
6.37045
5.80968
4.99479
4.01626
2.97126
1.96315
1.0783
0.364577
-0.168814
-0.536873
-0.76612
-0.886932
-0.928489
-0.915751
-0.868464
-0.801407
-0.725116
-0.646719
-0.570741
-0.499821
-0.435276
-0.377445
-0.326137
-0.280444
-0.239445
-0.199902
-0.162237
-0.105794
-0.0777722
68.5343
71.2022
110.502
184.021
205.649
-149.377
-54.6663
-28.7006
-16.2179
-9.45712
-5.45333
-2.92981
-1.31375
-0.298177
0.313581
0.654686
0.809094
0.896408
0.811683
0.767358
0.703037
0.629676
0.557884
0.489865
0.423655
0.375169
0.279045
0.487076
63.0433
63.49
90.6201
159.207
168.496
25.4877
-136.331
-52.6525
-27.6637
-15.5745
-9.01385
-5.15595
-2.74529
-1.20842
-0.243332
0.338477
0.662857
0.800148
0.883072
0.807214
0.758828
0.69441
0.621646
0.550381
0.482837
0.417845
0.36657
0.28744
0.443451
54.6272
53.2184
64.7404
109.531
91.4006
20.1786
-93.5039
-90.4552
-46.5951
-25.0044
-14.0531
-8.03585
-4.52166
-2.35715
-0.990462
-0.134557
0.382075
0.669024
0.77278
0.850525
0.785471
0.735579
0.671949
0.601547
0.532502
0.466893
0.403798
0.352299
0.27775
0.41288
44.6488
42.8841
43.628
49.3093
55.31
0.75885
-56.4618
-57.695
-36.3818
-20.8947
-11.9492
-6.80265
-3.76408
-1.90579
-0.743661
-0.0193269
0.417915
0.661619
0.720604
0.796986
0.747743
0.699104
0.637364
0.570847
0.505461
0.443001
0.382673
0.331992
0.260348
0.374503
34.7605
33.3766
31.9462
30.4241
15.8446
-1.73425
-25.4183
-29.7051
-21.7448
-13.8614
-8.35019
-4.82396
-2.62544
-1.25445
-0.396339
0.135437
0.453415
0.620906
0.655435
0.726781
0.693022
0.648859
0.590875
0.529827
0.469575
0.411564
0.355051
0.306149
0.23789
0.32823
25.9905
24.8642
23.0434
19.2508
9.48654
-4.55286
-14.1008
-15.1735
-11.4731
-7.58369
-4.68404
-2.6906
-1.3709
-0.518038
0.0216358
0.351835
0.541116
0.629805
0.681557
0.658375
0.627875
0.584743
0.533232
0.479342
0.425612
0.373329
0.32174
0.275649
0.211688
0.277184
18.9214
17.9269
16.0479
12.0006
5.18485
-3.14617
-8.88266
-9.84151
-7.846
-5.49796
-3.56244
-2.1146
-1.10048
-0.421139
0.0197809
0.29521
0.456675
0.536832
0.561576
0.566839
0.543612
0.508109
0.465821
0.420573
0.374662
0.329294
0.283734
0.241564
0.183093
0.224305
13.668
12.7515
10.9535
7.28122
2.38564
-2.77262
-6.00328
-6.62891
-5.53057
-4.07376
-2.75285
-1.69813
-0.922549
-0.383
-0.0221915
0.20998
0.350795
0.426695
0.458977
0.464343
0.448877
0.422936
0.390629
0.354957
0.317899
0.280479
0.24202
0.204957
0.153392
0.172352
10.0571
9.14954
7.40696
4.23416
0.68778
-2.57003
-4.44171
-4.78111
-4.08784
-3.11676
-2.18786
-1.41298
-0.82022
-0.391656
-0.0949768
0.102901
0.22837
0.30144
0.338459
0.350394
0.345407
0.330334
0.308858
0.283609
0.25627
0.227712
0.197387
0.166687
0.123645
0.123737
7.8154
6.85307
5.09816
2.40205
-0.202935
-2.31048
-3.43573
-3.60777
-3.14301
-2.47474
-1.81122
-1.23756
-0.782307
-0.440409
-0.193961
-0.022563
0.092198
0.164883
0.207453
0.228647
0.234926
0.231445
0.221477
0.207302
0.190373
0.171477
0.150282
0.127252
0.094551
0.0803386
6.64041
5.58603
3.79995
1.53918
-0.418527
-1.86457
-2.61487
-2.74389
-2.45915
-2.01576
-1.55222
-1.13433
-0.788392
-0.516718
-0.311619
-0.161466
-0.0543232
0.0197728
0.0691829
0.100419
0.118374
0.126994
0.129012
0.126382
0.120405
0.111849
0.100717
0.0866684
0.0663191
0.0433748
6.22699
5.08934
3.34339
1.48724
-0.0410729
-1.15472
-1.78218
-1.98093
-1.88217
-1.64014
-1.35104
-1.06842
-0.818021
-0.608784
-0.440786
-0.309349
-0.208338
-0.131998
-0.0751653
-0.0335272
-0.00363993
0.0173678
0.031647
0.0408619
0.0462051
0.0485025
0.0482422
0.0444064
0.0385348
0.0132947
6.27319
5.13451
3.58237
2.08978
0.816394
-0.185789
-0.855421
-1.21003
-1.32134
-1.28287
-1.16465
-1.01269
-0.854873
-0.706703
-0.575176
-0.462232
-0.367299
-0.288758
-0.224536
-0.172502
-0.13069
-0.0972578
-0.0706566
-0.0495084
-0.0326963
-0.019288
-0.00811644
-0.000733683
0.00989405
-0.0104349
6.45947
5.50431
4.30342
3.10817
1.96839
0.957647
0.161382
-0.395004
-0.734115
-0.90744
-0.965106
-0.947717
-0.886066
-0.801746
-0.708886
-0.616157
-0.528561
-0.448736
-0.377784
-0.315837
-0.262475
-0.21691
-0.17822
-0.145355
-0.117246
-0.0928799
-0.0702043
-0.0510477
-0.022699
-0.0302877
6.46686
5.92568
5.11895
4.16096
3.12004
2.09038
1.17119
0.425117
-0.128711
-0.505944
-0.737026
-0.855581
-0.893152
-0.876275
-0.825553
-0.756071
-0.67834
-0.599345
-0.523451
-0.453145
-0.389616
-0.333182
-0.283555
-0.240113
-0.201803
-0.167635
-0.134741
-0.104295
-0.059652
-0.049284
6.39191
6.15957
5.63998
4.8726
3.94498
2.94969
1.98356
1.12859
0.431906
-0.095207
-0.464768
-0.700512
-0.830486
-0.882111
-0.87919
-0.840801
-0.781396
-0.711416
-0.638033
-0.565894
-0.497792
-0.435206
-0.378623
-0.327978
-0.282474
-0.24127
-0.201232
-0.162815
-0.105829
-0.0768411
52.6215
51.4695
59.7949
85.9344
69.7159
11.0646
-64.6123
-61.6774
-35.003
-19.8121
-11.3161
-6.4378
-3.54255
-1.76226
-0.647917
0.0431456
0.454832
0.6666
0.741057
0.828061
0.77466
0.728692
0.664209
0.594818
0.526774
0.461988
0.398619
0.35001
0.258487
0.429542
48.6066
47.5058
52.277
74.5865
59.7403
10.0949
-56.5986
-54.8593
-32.7372
-18.8547
-10.8375
-6.1644
-3.37811
-1.66641
-0.596834
0.0660434
0.461204
0.666602
0.733855
0.816845
0.764869
0.717361
0.653663
0.585218
0.518106
0.454117
0.392137
0.341391
0.265018
0.390977
42.2781
40.9435
42.0027
43.8514
46.8954
-0.0882325
-40.241
-42.5505
-27.8721
-16.7187
-9.77002
-5.57508
-3.03694
-1.4738
-0.498833
0.104593
0.46442
0.651272
0.702887
0.782469
0.737218
0.690184
0.628639
0.563081
0.498652
0.437002
0.377259
0.32686
0.255131
0.363242
34.7592
33.373
31.9393
30.4137
15.8311
-1.80878
-25.5302
-29.7805
-21.7847
-13.878
-8.35614
-4.82523
-2.62505
-1.25375
-0.395789
0.13578
0.453611
0.621026
0.655516
0.726992
0.693194
0.649017
0.591023
0.529965
0.469702
0.411679
0.35515
0.306231
0.237947
0.328278
27.3343
26.1694
24.271
20.6605
10.2378
-2.3303
-15.3018
-19.1465
-15.5274
-10.6661
-6.72922
-3.98835
-2.19595
-1.05016
-0.32452
0.128363
0.401228
0.549583
0.574535
0.655442
0.633011
0.594256
0.541642
0.486637
0.431972
0.378855
0.326606
0.280167
0.215942
0.286137
20.7489
19.7931
17.97
14.052
6.46738
-3.75079
-9.92241
-10.952
-8.76742
-6.07811
-3.8735
-2.26936
-1.1696
-0.442993
0.0236544
0.312661
0.480635
0.563355
0.61106
0.588153
0.563859
0.526819
0.481769
0.434331
0.38654
0.339521
0.292612
0.24966
0.190428
0.239667
15.3953
14.5897
12.9371
9.25708
3.69187
-2.68143
-6.76562
-7.59761
-6.31925
-4.58993
-3.05627
-1.86172
-0.999565
-0.40817
-0.0174893
0.231017
0.379991
0.457487
0.485561
0.493891
0.477276
0.448622
0.413156
0.374523
0.334732
0.294862
0.254299
0.215862
0.162746
0.191574
11.3792
10.6611
9.15945
5.91939
1.7971
-2.32537
-4.8491
-5.4013
-4.64308
-3.51647
-2.43885
-1.55046
-0.880274
-0.402695
-0.0771931
0.136625
0.269862
0.345099
0.380653
0.390848
0.382337
0.36341
0.337955
0.308854
0.277907
0.246057
0.212768
0.179893
0.134166
0.144404
8.61225
7.908
6.4679
3.68856
0.626624
-2.09804
-3.67652
-4.01876
-3.52915
-2.76223
-1.99246
-1.33108
-0.812369
-0.428916
-0.157707
0.0272068
0.147957
0.221604
0.262221
0.279444
0.280971
0.27255
0.257603
0.238619
0.217161
0.194053
0.168898
0.14266
0.105732
0.1004
6.91314
6.15878
4.69466
2.3278
0.0264773
-1.82076
-2.84505
-3.06793
-2.75006
-2.22533
-1.67593
-1.18573
-0.786563
-0.479928
-0.25382
-0.0928783
0.0180738
0.0913066
0.13706
0.162952
0.174866
0.17728
0.173182
0.164701
0.1532
0.139432
0.123214
0.104701
0.0781385
0.0613151
6.06039
5.21692
3.70181
1.70281
-0.0617995
-1.3859
-2.12125
-2.31894
-2.14898
-1.81506
-1.44011
-1.08838
-0.788457
-0.546836
-0.360007
-0.219873
-0.117065
-0.0434717
0.00789351
0.0425867
0.0649228
0.0783303
0.0852594
0.0875078
0.0862889
0.0823397
0.0757877
0.0660826
0.0516042
0.0282964
5.81524
4.88561
3.37978
1.72204
0.321608
-0.730148
-1.36847
-1.62972
-1.61887
-1.46142
-1.24293
-1.01479
-0.803979
-0.621986
-0.47171
-0.350997
-0.255696
-0.181547
-0.124512
-0.0810919
-0.0483953
-0.0239905
-0.00600223
0.00706316
0.0163034
0.0224981
0.0262254
0.0263291
0.0257485
0.00177309
5.93015
4.98322
3.62548
2.27819
1.0992
0.143417
-0.529715
-0.924483
-1.09513
-1.11764
-1.0535
-0.945705
-0.821989
-0.698864
-0.584949
-0.483829
-0.396336
-0.321983
-0.25959
-0.207708
-0.164872
-0.12963
-0.100704
-0.0768988
-0.0572091
-0.0407721
-0.0263795
-0.015673
-0.000655994
-0.0187538
6.13446
5.33114
4.26856
3.17998
2.12119
1.16283
0.385321
-0.180865
-0.548408
-0.757753
-0.851793
-0.867344
-0.833506
-0.771484
-0.695793
-0.615815
-0.537327
-0.463698
-0.396665
-0.336893
-0.28439
-0.238708
-0.199187
-0.16497
-0.135117
-0.10871
-0.0837199
-0.0620293
-0.0304937
-0.0356075
6.15921
5.70263
4.98114
4.10208
3.13397
2.16485
1.28648
0.559807
0.00725829
-0.380794
-0.629315
-0.767907
-0.825379
-0.826639
-0.791515
-0.734865
-0.667299
-0.596067
-0.525872
-0.459549
-0.398608
-0.34365
-0.294628
-0.251106
-0.212178
-0.176965
-0.142693
-0.110592
-0.0640877
-0.0516352
6.10298
5.90405
5.4325
4.72175
3.85535
2.92014
2.00529
1.18748
0.512635
-0.00574226
-0.376262
-0.619324
-0.760124
-0.823897
-0.832974
-0.805562
-0.755669
-0.693582
-0.626509
-0.559231
-0.49472
-0.434646
-0.37968
-0.329912
-0.284682
-0.243251
-0.202618
-0.16331
-0.105699
-0.075598
38.3305
37.4232
37.2272
35.0705
20.6123
-2.33902
-28.3502
-27.036
-18.2269
-10.9798
-6.46995
-3.64521
-1.86139
-0.73917
-0.0397314
0.383039
0.622522
0.730124
0.787813
0.765022
0.724325
0.673592
0.613015
0.549572
0.486927
0.426843
0.367524
0.319828
0.234009
0.366127
35.6054
34.6071
33.7101
29.8794
17.111
-1.73671
-25.0399
-24.192
-16.6967
-10.2469
-6.06983
-3.41902
-1.73507
-0.672933
-0.0106488
0.389703
0.616085
0.718661
0.777087
0.751068
0.710361
0.66016
0.600776
0.538617
0.477241
0.418228
0.360446
0.311275
0.238587
0.333074
31.2362
30.1063
28.8243
25.6253
12.5893
-5.76036
-19.147
-20.0633
-14.3043
-9.02891
-5.43419
-3.07828
-1.5576
-0.590659
0.0148116
0.381984
0.590229
0.685184
0.739666
0.714535
0.677582
0.629946
0.573655
0.514783
0.456458
0.40012
0.344876
0.296617
0.228605
0.308475
25.9864
24.8579
23.0332
19.2351
9.46462
-4.61617
-14.1631
-15.2174
-11.4938
-7.59218
-4.6871
-2.69117
-1.37039
-0.517191
0.0225119
0.352628
0.541804
0.630405
0.682072
0.658862
0.628303
0.585134
0.533595
0.479676
0.425918
0.373603
0.321976
0.275842
0.211822
0.277294
20.7466
19.7899
17.9655
14.0452
6.45752
-3.77346
-9.9442
-10.9687
-8.77672
-6.08281
-3.8758
-2.27028
-1.16983
-0.442899
0.0238719
0.312908
0.480874
0.56358
0.61126
0.588418
0.564102
0.527042
0.481975
0.434521
0.386713
0.339675
0.292744
0.249768
0.190504
0.239729
16.0481
15.2827
13.6786
9.99681
4.10443
-2.91004
-7.04078
-7.85541
-6.51045
-4.68115
-3.07688
-1.84775
-0.971398
-0.375526
0.014946
0.260931
0.406331
0.479885
0.511837
0.505446
0.48734
0.457454
0.420592
0.380912
0.340226
0.299566
0.258338
0.219497
0.165945
0.198329
12.1878
11.572
10.2053
6.95015
2.4766
-2.24211
-5.10656
-5.75998
-4.94616
-3.71441
-2.54941
-1.60226
-0.895378
-0.39612
-0.0589746
0.160284
0.295233
0.369418
0.403414
0.409646
0.399722
0.378998
0.351569
0.320656
0.28803
0.254656
0.22003
0.186257
0.139464
0.155541
9.27197
8.7428
7.53754
4.74159
1.346
-1.88212
-3.82413
-4.30751
-3.80637
-2.9684
-2.12325
-1.40127
-0.839598
-0.428078
-0.140399
0.0534373
0.178252
0.252609
0.292149
0.306936
0.305944
0.294864
0.277196
0.255595
0.231669
0.206281
0.179034
0.151226
0.112305
0.11368
7.26769
6.75508
5.60334
3.22006
0.631451
-1.61346
-2.93376
-3.284
-2.97042
-2.39599
-1.7856
-1.24205
-0.802469
-0.468698
-0.226092
-0.056125
0.0587651
0.132465
0.176656
0.199538
0.208017
0.206855
0.199158
0.187196
0.172392
0.155518
0.136325
0.115358
0.0854914
0.0747959
6.06265
5.50579
4.3203
2.2852
0.290581
-1.31043
-2.24008
-2.51436
-2.33458
-1.95283
-1.52246
-1.12182
-0.784756
-0.518177
-0.315982
-0.167881
-0.0622541
0.0106752
0.0592631
0.0898851
0.107652
0.116361
0.118657
0.11646
0.111022
0.103051
0.0925083
0.0792427
0.0597098
0.0405033
5.50137
4.86105
3.61132
1.87901
0.315257
-0.885623
-1.60262
-1.86703
-1.80943
-1.58775
-1.30715
-1.02782
-0.779688
-0.572845
-0.407906
-0.280357
-0.183627
-0.111631
-0.0589102
-0.0209971
0.00572859
0.0241262
0.0363068
0.0438637
0.0478998
0.0491042
0.0477278
0.0429974
0.0351906
0.0118668
5.40355
4.67716
3.41215
1.95999
0.696265
-0.287284
-0.930346
-1.25083
-1.32693
-1.25684
-1.11387
-0.945599
-0.779433
-0.628981
-0.499842
-0.392405
-0.304654
-0.233953
-0.17751
-0.13275
-0.0974266
-0.0696063
-0.0477419
-0.0305508
-0.0170565
-0.0065443
0.00165189
0.00621348
0.0115929
-0.0107073
5.57256
4.81532
3.65642
2.46242
1.38651
0.484757
-0.185141
-0.61593
-0.844495
-0.929522
-0.92281
-0.863249
-0.777674
-0.683226
-0.589966
-0.503085
-0.424874
-0.356058
-0.296433
-0.245314
-0.20181
-0.164911
-0.133655
-0.107068
-0.0842821
-0.0645257
-0.0465533
-0.0321286
-0.0122221
-0.0276782
5.78592
5.13421
4.21505
3.24049
2.27069
1.37242
0.620509
0.0494107
-0.344034
-0.58926
-0.721257
-0.772281
-0.769137
-0.73225
-0.676286
-0.611235
-0.543626
-0.477576
-0.415504
-0.358655
-0.307514
-0.262023
-0.221817
-0.186264
-0.15458
-0.125968
-0.0984294
-0.0739377
-0.0389053
-0.0412024
5.82447
5.45275
4.82038
4.02626
3.13793
2.23649
1.40556
0.703587
0.15584
-0.241409
-0.507334
-0.66703
-0.74611
-0.767489
-0.749957
-0.707983
-0.652193
-0.59007
-0.526654
-0.465144
-0.407404
-0.354349
-0.306197
-0.262729
-0.223209
-0.18689
-0.151117
-0.117202
-0.0687059
-0.0539481
5.78611
5.62096
5.20013
4.55077
3.75159
2.88282
2.0254
1.25004
0.60102
0.093856
-0.276544
-0.526947
-0.679361
-0.756524
-0.779045
-0.764072
-0.725057
-0.672071
-0.612322
-0.550725
-0.490441
-0.433349
-0.380323
-0.331629
-0.286763
-0.245109
-0.203828
-0.16353
-0.105307
-0.0739843
26.9547
25.8039
23.9789
20.1369
11.5188
-5.22083
-14.1066
-16.3128
-11.6224
-7.57784
-4.73487
-2.7377
-1.3998
-0.530641
0.0224999
0.362167
0.557787
0.65192
0.679297
0.683339
0.648564
0.602912
0.550203
0.494573
0.438997
0.385073
0.331096
0.28555
0.206844
0.300399
25.1997
24.0407
22.0313
17.7597
9.5842
-4.9959
-12.7568
-14.7435
-10.8053
-7.12047
-4.46021
-2.58129
-1.31386
-0.487371
0.0391349
0.362424
0.54822
0.63709
0.661889
0.665299
0.63243
0.587921
0.536673
0.482602
0.428527
0.375883
0.323551
0.277174
0.209475
0.273046
22.3756
21.2678
19.3309
14.996
7.1638
-3.73046
-11.1696
-12.3834
-9.43226
-6.38746
-4.05263
-2.36478
-1.20946
-0.448556
0.039154
0.340206
0.514198
0.598216
0.622056
0.625705
0.596724
0.55576
0.508099
0.457585
0.406802
0.357076
0.307517
0.262571
0.19952
0.251719
18.9143
17.9181
16.0359
11.9837
5.16241
-3.19462
-8.92694
-9.87516
-7.86342
-5.50567
-3.56518
-2.11474
-1.09952
-0.419781
0.0211616
0.296482
0.457808
0.537839
0.562478
0.567668
0.544365
0.5088
0.466457
0.421157
0.375192
0.329765
0.28414
0.241895
0.183324
0.224494
15.3903
14.5838
12.9295
9.24702
3.67885
-2.70486
-6.78715
-7.61436
-6.3287
-4.59447
-3.05805
-1.86192
-0.999033
-0.407353
-0.0166112
0.231858
0.380762
0.458188
0.486198
0.494487
0.477822
0.449124
0.413619
0.374948
0.335117
0.295204
0.254593
0.216102
0.162914
0.19171
12.1852
11.5691
10.2019
6.94589
2.47137
-2.25023
-5.11413
-5.76598
-4.94975
-3.71619
-2.55009
-1.60229
-0.895094
-0.395708
-0.0585321
0.160714
0.295633
0.369786
0.403753
0.409961
0.400013
0.379266
0.351816
0.320882
0.288235
0.254838
0.220186
0.186384
0.139554
0.155614
9.52632
9.05853
7.93876
5.14427
1.62756
-1.79757
-3.87764
-4.41754
-3.91229
-3.04633
-2.17267
-1.42837
-0.85107
-0.429317
-0.135647
0.0614056
0.187694
0.262269
0.301472
0.31521
0.313783
0.301977
0.283466
0.261045
0.236338
0.210225
0.182318
0.154037
0.114528
0.11838
7.51057
7.13077
6.16499
3.79467
1.04399
-1.44882
-2.96079
-3.40005
-3.0973
-2.49788
-1.85418
-1.28089
-0.818507
-0.469067
-0.216841
-0.0414559
0.0760747
0.150469
0.194224
0.215884
0.223023
0.220314
0.210998
0.197454
0.181137
0.162839
0.142304
0.120286
0.0890405
0.0820825
6.13661
5.77988
4.86318
2.84759
0.690229
-1.14327
-2.25377
-2.61599
-2.45138
-2.04872
-1.58638
-1.15533
-0.793856
-0.510348
-0.297453
-0.143346
-0.0350304
0.038302
0.0858863
0.11461
0.130135
0.13644
0.1363
0.13173
0.124019
0.113878
0.101207
0.086129
0.0640898
0.0485631
5.33929
4.94826
3.99861
2.27171
0.565277
-0.813227
-1.65889
-1.97955
-1.92263
-1.67442
-1.35967
-1.04861
-0.775674
-0.551687
-0.375869
-0.242593
-0.143808
-0.0722554
-0.0215285
0.0134696
0.0368939
0.0518737
0.0606778
0.0649841
0.0659151
0.0641244
0.0597095
0.052202
0.0403514
0.019287
5.0134
4.54881
3.53375
2.05278
0.683528
-0.398098
-1.09309
-1.41572
-1.46042
-1.34589
-1.15888
-0.953607
-0.760064
-0.591055
-0.450804
-0.338138
-0.249279
-0.180214
-0.127079
-0.086546
-0.0558076
-0.0326029
-0.0151968
-0.00223638
0.00724802
0.0138816
0.0180308
0.0186818
0.0180703
-0.0047702
5.02694
4.48068
3.43659
2.18217
1.05484
0.142919
-0.497062
-0.86786
-1.02323
-1.03682
-0.968988
-0.862199
-0.743206
-0.627089
-0.521677
-0.429724
-0.351304
-0.285426
-0.230596
-0.185211
-0.147741
-0.116792
-0.0911806
-0.069868
-0.0520222
-0.0370122
-0.0240938
-0.0147693
-0.00304917
-0.0232286
5.22765
4.64167
3.67026
2.62681
1.65622
0.813722
0.154828
-0.304051
-0.584214
-0.728394
-0.778321
-0.767917
-0.722296
-0.658693
-0.588222
-0.51749
-0.450174
-0.38819
-0.332339
-0.28273
-0.239088
-0.200885
-0.167502
-0.138215
-0.112315
-0.0891415
-0.0674261
-0.0490721
-0.0240484