/*--------------------------------*- C++ -*----------------------------------*\
  =========                 |
  \\      /  F ield         | OpenFOAM: The Open Source CFD Toolbox
   \\    /   O peration     | Website:  https://openfoam.org
    \\  /    A nd           | Version:  7
     \\/     M anipulation  |
\*---------------------------------------------------------------------------*/
FoamFile
{
    version     2.0;
    format      ascii;
    class       surfaceScalarField;
    location    "500";
    object      phi;
}
// * * * * * * * * * * * * * * * * * * * * * * * * * * * * * * * * * * * * * //

dimensions      [0 3 -1 0 0 0 0];

internalField   nonuniform List<scalar> 
81175
(
525.054
8.76053
8.72126
113.18
32.2458
32.1276
115.168
115.324
117.009
93.5163
9.84382
9.81952
-14.6345
3.03793
3.45972
1.99902
2.18304
1.71138
2.24336
2.29726
-0.639624
-0.757048
-0.900588
-5.83338
-1.10836
-1.17622
8.11796
-14.0444
15.6835
-0.809878
-0.829302
-19.7123
20.8007
-0.541226
-0.547128
-23.4692
24.1941
-0.361346
-0.363497
-25.991
26.4861
-0.247051
-0.248022
-27.7318
28.0806
-0.174102
-0.174642
-28.9712
29.2243
-0.126395
-0.126748
-29.8796
30.0684
-0.0942958
-0.0945552
-30.5663
123.42
-0.553164
-0.554767
-30.578
-30.578
-30.5897
504.591
-3.16147
-3.17171
-124.425
-124.565
-124.565
-124.702
509.74
-2.56965
-2.57869
513.949
-2.10055
-2.10864
517.43
-1.73686
-1.74419
520.34
-1.45179
-1.45849
522.797
-1.22542
-1.23157
524.889
-1.04308
-1.04875
526.683
-0.894198
-0.899448
528.218
-0.765487
-0.77035
529.555
-0.666238
-0.670752
-0.523031
-0.527271
529.709
14.4434
7.59941
118.567
50.6907
27.1086
122.254
120.051
123.284
-17.9314
104.563
23.6196
8.31538
-11.0158
-19.6579
13.0944
2.57159
3.89411
3.58307
3.63156
3.89909
-2.37823
3.78727
-5.4933
-1.0272
5.11145
-12.0631
4.19661
-1.03
-4.94959
13.8461
2.8505
-18.0896
19.2287
-3.29902
-0.690497
1.91547
-22.058
22.8416
-2.23533
-0.463759
1.30775
-24.8219
25.3778
-1.54571
-0.317892
0.913501
-26.7961
27.198
-1.09223
-0.223139
0.654715
-28.2325
28.5284
-0.789986
-0.160625
0.481336
-29.2971
29.5191
-0.584824
-0.118512
0.362386
-30.1012
30.271
-0.442705
-0.0895057
-30.7309
1.07578
124.057
-1.5532
-0.526421
-30.7852
-30.7418
-30.7957
506.742
-5.85059
-2.99779
-125.009
-125.393
-125.139
-125.514
511.418
-4.79363
-2.4523
515.287
-3.9533
-2.0163
518.516
-3.29028
-1.67548
521.236
-2.76532
-1.40648
523.548
-2.3452
-1.19159
525.527
-2.00447
-1.01765
527.231
-1.72363
-0.874961
528.7
-1.48336
-0.751407
529.97
-1.27981
-0.656609
-1.05225
-0.513916
535.602
16.5544
6.02753
126.056
54.5313
20.0229
129.141
126.848
129.694
-26.3317
119.549
26.9678
5.87066
-14.8847
-27.0658
25.359
14.7919
1.79969
-0.186687
0.876702
-0.746707
0.0579225
-19.5468
8.91181
-8.70849
-1.01886
20.3623
5.70748
-22.1232
-0.649111
22.6416
-5.57671
3.87296
-24.09
24.5363
-3.86742
-0.451792
2.7498
-25.768
26.1431
-2.79976
-0.325136
1.99444
-27.1673
27.4764
-2.06569
-0.23786
1.46856
-28.314
28.5651
-1.54333
-0.176358
1.09791
-29.2425
29.4448
-1.16765
-0.132611
0.83401
-29.9897
30.1524
-0.895489
-0.101217
0.644049
-30.591
30.7224
-0.696961
-0.0784801
-31.0933
1.95404
125.356
-2.29006
-0.46942
-31.1733
-31.1023
-31.1819
510.557
-7.78074
-2.69684
-126.165
-126.695
-126.276
-126.795
514.449
-6.45601
-2.2299
517.735
-5.38754
-1.85169
520.525
-4.5287
-1.55164
522.909
-3.83784
-1.31177
524.96
-3.27795
-1.11815
526.735
-2.81907
-0.96006
528.278
-2.43706
-0.829413
529.619
-2.10914
-0.71575
530.792
-1.82433
-0.628167
-1.52398
-0.494339
540.839
16.2542
4.58655
530.973
50.1712
14.2263
129.682
97.4212
28.5549
-26.4715
-35.978
-25.599
-34.5275
133.614
130.444
133.834
-53.7852
131.703
44.3984
7.36518
-23.408
-34.0449
36.1841
19.4485
1.82057
4.65853
-4.72366
0.0653697
12.0777
-29.0633
28.483
-10.5166
-0.980891
7.0075
-27.8311
-0.530211
27.758
-6.40416
4.8025
-27.7928
27.8632
-4.50709
-0.365876
3.56055
-28.1736
28.2991
-3.41074
-0.275279
2.72619
-28.7055
28.8468
-2.65455
-0.212923
2.1122
-29.2764
29.4179
-2.08748
-0.166216
1.64618
-29.8326
29.9652
-1.6484
-0.130348
1.29046
-30.345
30.4642
-1.3069
-0.102727
1.01894
-30.8008
30.9051
-1.04179
-0.0814875
0.812077
-31.1973
31.2875
-0.837018
-0.0651857
-31.5572
2.53579
127.004
-2.72193
-0.39946
-31.6453
-31.5643
-31.6519
515.338
-8.91056
-2.33242
-127.637
-128.217
-127.725
-128.296
518.337
-7.50078
-1.95448
520.937
-6.34425
-1.64367
523.197
-5.39564
-1.39247
525.166
-4.6184
-1.18822
526.888
-3.9789
-1.02113
528.4
-3.44815
-0.883146
529.732
-3.00143
-0.768053
530.906
-2.61531
-0.667218
531.946
-2.2754
-0.589092
-1.92186
-0.468362
544.531
14.5775
3.37013
541.905
42.9356
9.86159
136.192
75.214
17.6282
136.955
136.318
137.02
-36.3522
138.395
30.3605
3.78804
-49.129
149.499
37.6516
4.86187
-142.883
-10.893
-39.625
40.9097
0.582558
9.02582
-0.37948
-43.0194
42.4286
-0.0814201
1.05164
6.91289
-37.9077
141.262
-16.0713
-2.41557
7.20594
6.77269
7.10644
-37.9742
-37.4488
-37.442
6.37479
-134.034
129.482
-17.6597
-2.40489
6.297
6.00846
5.93672
4.71266
-126.67
125.089
-14.7623
-1.88962
4.44339
4.67057
4.4063
3.62267
-124.15
123.674
-12.131
-1.50296
3.45603
3.59755
3.43365
2.90233
-123.462
123.446
-10.0961
-1.2265
2.78307
2.88548
2.76778
2.36324
-123.575
123.801
-8.46074
-1.01325
2.27227
2.35111
2.26112
1.93437
-124.11
124.469
-7.09278
-0.839703
1.86077
1.92562
1.85267
1.58323
-124.877
125.301
-5.93067
-0.695232
1.52342
1.57694
1.51757
1.29545
-125.751
126.196
-4.94677
-0.574948
1.24706
1.29094
1.24283
1.06108
-126.65
127.087
-4.1213
-0.475577
1.02206
1.05785
1.019
0.87154
-127.523
127.934
-3.437
-0.394436
0.840803
0.869201
0.838553
2.82585
-128.343
128.729
-2.88308
-0.32943
520.459
-9.34886
-1.95893
-129.197
-129.767
-129.267
-129.83
522.613
-7.9889
-1.6654
524.538
-6.84889
-1.42042
526.258
-5.89756
-1.21828
527.793
-5.10272
-1.0507
529.163
-4.43802
-0.911517
530.389
-3.87893
-0.795129
531.488
-3.40307
-0.697075
532.472
-2.9885
-0.610505
533.36
-2.62002
-0.543125
-2.23544
-0.437466
546.761
12.2667
2.40264
547.612
35.2624
6.82186
553.614
57.9403
11.2721
568.579
76.1792
15.0179
-25.5179
-28.2814
-24.8424
-27.5208
148.054
78.4344
15.6114
-29.781
-27.8385
-28.8906
-27.0472
146.177
147.83
146.028
-22.4628
150.387
18.3294
1.80041
-4.99991
-150.838
149.204
6.13367
0.500465
556.478
-11.3289
-3.7343
8.95742
11.0847
8.36674
10.5078
-145.873
-144.466
-145.67
-144.323
538.432
-24.2152
-5.80567
12.4561
12.0282
11.9538
11.6292
527.74
-28.056
-5.98402
11.715
10.9517
11.3796
10.6858
521.903
-27.8296
-5.57811
10.2527
9.58062
10.0205
9.39047
518.963
-26.0149
-5.01904
8.85339
8.29137
8.68234
8.14684
517.774
-23.6443
-4.44574
7.61909
7.14128
7.48966
7.02927
517.719
-21.1432
-3.89963
6.52548
6.11644
6.42611
6.03002
518.392
-18.6845
-3.39425
5.56303
5.21083
5.48717
5.14462
519.524
-16.371
-2.93639
4.72128
4.42073
4.66367
4.37024
520.917
-14.2535
-2.52963
3.9945
3.74139
3.95088
3.7029
522.433
-12.361
-2.17542
3.3754
3.16589
3.34234
3.13667
523.994
-10.6954
-1.86976
2.85629
2.6752
2.82951
2.64325
525.501
-9.24585
-1.60959
526.923
-8.02177
-1.38972
528.25
-6.97303
-1.203
529.477
-6.07903
-1.0451
530.603
-5.31732
-0.911541
531.634
-4.66996
-0.79886
532.577
-4.11825
-0.703428
533.44
-3.64371
-0.622263
534.228
-3.22729
-0.550105
534.957
-2.85453
-0.493783
-2.46078
-0.403921
547.908
9.85496
1.67461
550.326
28.1601
4.68379
555.895
44.9452
7.42593
565.558
57.0808
9.4356
576.147
58.2572
9.58805
579.503
43.9825
6.80381
-15.4451
-11.8338
-15.1759
-11.6879
573.026
22.0024
2.94196
-6.43516
-2.74711
-6.42604
-2.85932
560.465
1.797
-0.564043
548.982
-10.3606
-2.37185
540.47
-16.4341
-3.11005
534.769
-18.8365
-3.29188
531.155
-19.1994
-3.20197
529.013
-18.5097
-2.99248
527.887
-17.2845
-2.73302
527.474
-15.8118
-2.45934
527.556
-14.2639
-2.18952
527.975
-12.7379
-1.93447
528.611
-11.2967
-1.70065
529.375
-9.96857
-1.4902
530.208
-8.77385
-1.30493
531.052
-7.72237
-1.14416
531.885
-6.80096
-1.00432
532.688
-5.99903
-0.883515
533.453
-5.30302
-0.779433
534.176
-4.70247
-0.690274
534.856
-4.18444
-0.613857
535.496
-3.73486
-0.548332
536.096
-3.33829
-0.489798
536.668
-2.98196
-0.444095
-2.59872
-0.369834
548.347
7.63459
1.15164
551.235
22.0579
3.2144
556.19
34.9845
5.00551
563.112
43.9483
6.21078
569.853
45.2069
6.30868
572.372
36.5957
4.86757
569.214
22.4417
2.71947
562.178
8.20137
0.631082
554.633
-2.08725
-0.727908
548.206
-8.50682
-1.50082
543.286
-12.0439
-1.87266
539.744
-13.6578
-1.99955
537.293
-14.0719
-1.98678
535.666
-13.7603
-1.89727
534.664
-13.0419
-1.76767
534.123
-12.1032
-1.61967
533.921
-11.0689
-1.46685
533.962
-10.02
-1.31773
534.174
-9.00385
-1.17693
534.502
-8.05341
-1.04838
534.899
-7.18609
-0.932878
535.335
-6.40684
-0.829967
535.789
-5.71432
-0.739213
536.248
-5.10249
-0.659589
536.703
-4.5671
-0.590386
537.15
-4.10035
-0.530431
537.586
-3.69257
-0.478701
538.012
-3.33222
-0.432438
538.436
-3.00906
-0.396424
-2.65312
-0.336909
548.395
5.72759
0.78612
551.236
16.9992
2.21739
555.515
27.2566
3.44906
560.828
34.3766
4.25871
565.721
35.9392
4.37463
567.95
30.765
3.60183
566.662
21.3696
2.35976
562.675
11.134
1.05441
557.76
2.76039
0.0672993
553.067
-3.21553
-0.597912
549.087
-7.06533
-0.998846
545.913
-9.27431
-1.20964
543.497
-10.3602
-1.29534
541.704
-10.6653
-1.30227
540.413
-10.4902
-1.26056
539.518
-10.017
-1.19062
538.93
-9.37532
-1.10588
538.578
-8.65312
-1.01523
538.406
-7.90757
-0.924306
538.368
-7.17822
-0.837143
538.426
-6.48814
-0.755862
538.552
-5.85147
-0.681506
538.726
-5.27359
-0.614469
538.932
-4.75416
-0.554556
539.16
-4.29368
-0.501752
539.404
-3.88869
-0.455572
539.661
-3.53362
-0.415575
539.93
-3.22086
-0.379957
540.217
-2.94374
-0.352436
-2.62916
-0.306414
548.245
4.14597
0.536921
550.814
12.8826
1.54767
554.482
21.1536
2.43533
558.796
27.0325
3.03018
562.739
28.8242
3.17164
564.937
25.8068
2.76078
564.801
19.4895
2.0155
562.694
12.0701
1.17097
559.59
5.40781
0.456888
556.262
0.195669
-0.0832381
553.151
-3.50093
-0.453524
550.482
-5.91966
-0.685556
548.259
-7.32105
-0.816258
546.48
-8.01037
-0.875748
545.08
-8.20332
-0.887215
543.999
-8.06861
-0.867458
543.18
-7.72812
-0.828338
542.574
-7.26836
-0.778177
542.138
-6.74891
-0.72266
541.837
-6.21185
-0.665884
541.642
-5.68299
-0.610387
541.53
-5.18097
-0.557888
541.481
-4.71531
-0.509313
541.481
-4.28959
-0.465009
541.521
-3.90764
-0.425396
541.592
-3.56945
-0.390462
541.691
-3.27312
-0.360162
541.819
-3.01487
-0.333507
541.982
-2.79314
-0.313176
-2.53189
-0.279205
547.991
2.8862
0.369935
550.206
9.56442
1.10244
553.359
16.2285
1.77263
557.035
21.1158
2.2403
560.492
22.9694
2.39803
562.787
21.3223
2.18954
563.433
17.112
1.73147
562.58
11.7541
1.16927
560.752
6.58799
0.648024
558.487
2.24306
0.217551
556.159
-1.06703
-0.105919
553.963
-3.39096
-0.332502
552.02
-4.89856
-0.47989
550.351
-5.77438
-0.567072
548.948
-6.18994
-0.610568
547.787
-6.28415
-0.623301
546.837
-6.16336
-0.615107
546.069
-5.90641
-0.593304
545.453
-5.56996
-0.563206
544.965
-5.19506
-0.528781
544.582
-4.80782
-0.492648
544.287
-4.4283
-0.456815
544.062
-4.06806
-0.422522
543.896
-3.73302
-0.390455
543.779
-3.42907
-0.361309
543.703
-3.15871
-0.335398
543.666
-2.92327
-0.312931
543.668
-2.72247
-0.293632
543.716
-2.56209
-0.279177
-2.36483
-0.255785
547.703
1.9039
0.258673
549.56
6.89767
0.810152
552.301
12.147
1.34057
555.575
16.1116
1.73008
558.789
17.8595
1.89598
561.214
17.094
1.80281
562.449
14.3602
1.5175
562.479
10.5905
1.13343
561.608
6.71273
0.746255
560.177
3.27137
0.402684
558.491
0.495028
0.124029
556.761
-1.57349
-0.0872214
555.106
-3.00624
-0.238164
553.593
-3.92095
-0.339714
552.245
-4.43952
-0.402872
551.067
-4.6691
-0.437182
550.051
-4.6964
-0.450499
549.182
-4.58835
-0.449039
548.444
-4.39484
-0.43758
547.822
-4.15289
-0.419835
547.299
-3.88683
-0.39839
546.862
-3.61592
-0.375356
546.498
-3.35199
-0.35215
546.197
-3.102
-0.329671
545.95
-2.87277
-0.308793
545.749
-2.66839
-0.290057
545.593
-2.49285
-0.273813
545.479
-2.34869
-0.26043
545.42
-2.25173
-0.250582
-2.12836
-0.236369
547.405
1.15465
0.182908
548.948
4.73467
0.619842
551.393
8.63862
1.06354
554.436
11.6644
1.40488
557.543
13.1766
1.5751
560.133
12.9537
1.55084
561.82
11.3003
1.37303
562.509
8.7976
1.10408
562.354
6.05829
0.809533
561.596
3.49824
0.530446
560.464
1.3378
0.28904
559.145
-0.348019
0.0936944
557.772
-1.5766
-0.0562203
556.429
-2.41242
-0.165916
555.167
-2.93468
-0.242204
554.009
-3.21943
-0.291883
552.965
-3.33182
-0.321078
552.036
-3.32416
-0.334972
551.216
-3.23674
-0.337793
550.496
-3.10016
-0.332971
549.867
-2.93515
-0.323025
549.32
-2.75835
-0.310086
548.844
-2.5805
-0.295675
548.431
-2.40843
-0.280844
548.074
-2.24881
-0.266576
547.766
-2.1064
-0.253592
547.502
-1.98713
-0.242279
547.282
-1.89496
-0.233615
547.115
-1.85791
-0.227168
-1.81693
-0.220911
547.162
0.591535
0.12631
548.458
2.94027
0.498701
550.694
5.50786
0.895077
553.587
7.56276
1.20876
556.666
8.71301
1.38413
559.42
8.7943
1.40521
561.484
7.93837
1.29786
562.711
6.46619
1.10507
563.149
4.74571
0.874592
562.95
3.05591
0.641253
562.293
1.56701
0.427104
561.345
0.356448
0.243571
560.239
-0.564435
0.09425
559.072
-1.22295
-0.0221029
557.909
-1.66309
-0.109185
556.793
-1.93187
-0.171612
555.748
-2.0722
-0.214066
554.784
-2.12003
-0.240847
553.907
-2.10393
-0.255691
553.115
-2.04614
-0.261772
552.403
-1.96212
-0.261549
551.767
-1.86447
-0.257152
551.198
-1.76157
-0.250184
550.691
-1.65914
-0.24182
550.237
-1.56264
-0.23312
549.832
-1.47643
-0.224965
549.47
-1.40734
-0.21769
549.147
-1.35853
-0.212881
548.866
-1.3682
-0.208685
-1.41148
-0.209327
547.011
0.198072
0.0729617
548.127
1.39098
0.433144
550.2
2.62591
0.809621
552.973
3.67734
1.11229
556.047
4.33947
1.29973
558.972
4.51029
1.3583
561.389
4.21869
1.30256
563.101
3.59177
1.16311
564.076
2.79372
0.976437
564.396
1.96289
0.773172
564.193
1.19495
0.575365
563.61
0.542762
0.396644
562.777
0.0244722
0.243717
561.8
-0.36432
0.118344
560.758
-0.639735
0.0192119
559.705
-0.822506
-0.056565
558.678
-0.93335
-0.112515
557.701
-0.990611
-0.152228
556.786
-1.00944
-0.179041
555.938
-1.00195
-0.195931
555.158
-0.976875
-0.205323
554.444
-0.94138
-0.209365
553.792
-0.900371
-0.209734
553.198
-0.857401
-0.207737
552.656
-0.815742
-0.204489
552.159
-0.778136
-0.201029
551.699
-0.750077
-0.197615
551.27
-0.732974
-0.196237
550.856
-0.760479
-0.193718
-0.861266
-0.20045
546.948
0.0328369
547.936
0.403193
549.78
0.781697
552.36
1.09737
555.381
1.31836
558.463
1.42795
561.252
1.42969
563.501
1.343
565.099
1.19576
566.047
1.0155
566.417
0.824978
566.319
0.640727
565.87
0.473168
565.178
0.327563
564.333
0.205518
563.404
0.10628
562.443
0.0276998
561.485
-0.0330098
560.555
-0.0787903
559.665
-0.112483
558.825
-0.136588
558.037
-0.153359
557.301
-0.164661
556.616
-0.172019
555.977
-0.176723
555.379
-0.180007
554.811
-0.182223
554.263
-0.185576
553.689
-0.186175
-0.196338
529.76
7.60382
14.3651
118.679
27.1243
50.4852
120.068
122.268
123.264
-17.8068
104.753
8.28395
23.4482
-11.1981
-19.8982
2.68592
12.971
3.96479
3.76309
3.7561
3.95538
-2.64206
4.31927
-1.02362
-6.04325
5.38967
-12.2109
4.37415
-1.00597
-5.11165
13.9544
2.90344
-18.1291
19.2566
-0.680149
-3.35081
1.93341
-22.0681
22.8488
-0.459882
-2.25431
1.31494
-24.8247
25.3798
-0.316277
-1.55377
0.916979
-26.797
27.1986
-0.222338
-1.0963
0.656732
-28.2328
28.5286
-0.160154
-0.792408
0.48269
-29.2972
29.5192
-0.118191
-0.586475
0.363397
-30.1012
30.271
-0.0892641
-0.443949
-30.7309
1.07894
124.057
-0.524919
-1.55784
-30.7418
-30.7852
-30.7957
506.742
-2.98824
-5.87031
-125.009
-125.139
-125.392
-125.514
511.418
-2.4438
-4.81115
515.287
-2.00863
-3.96905
518.516
-1.66851
-3.30459
521.236
-1.40009
-2.77843
523.547
-1.1857
-2.35727
525.526
-1.0122
-2.01562
527.231
-0.869909
-1.73396
528.7
-0.746719
-1.49294
529.97
-0.652253
-1.2887
-0.50982
-1.06061
533.223
12.787
12.7597
122.433
43.7959
43.7259
125.152
125.137
127.211
-15.3001
-15.3207
112.384
20.3573
20.3131
-9.46979
-9.54601
-23.2279
19.9903
11.1391
11.1143
-9.90894
4.7392
4.72211
-5.94757
-5.97921
12.3744
-17.0834
3.65122
3.59444
-4.16602
-4.21692
18.2207
2.42648
2.39843
-21.0086
21.7878
-2.78806
-2.81596
1.65993
1.64798
-23.7973
24.3751
-1.93645
-1.94924
1.16208
1.15662
-25.8827
26.3191
-1.37447
-1.38066
0.830737
0.827849
-27.4616
27.7933
-0.993432
-0.99683
0.606687
0.604914
-28.6642
28.918
-0.731619
-0.733756
0.452583
0.451348
-29.5873
29.7833
-0.549224
-0.550733
0.344598
0.343655
-30.3033
30.4566
-0.420232
-0.421393
-30.8828
1.02453
1.02156
124.646
-1.47746
-1.48181
-30.9335
-30.9335
-30.9825
508.731
-5.54656
-5.565
-125.549
-125.907
-125.907
-126.243
512.989
-4.56859
-4.58509
516.552
-3.78649
-3.80141
519.551
-3.16474
-3.17836
522.095
-2.66931
-2.68183
524.271
-2.27079
-2.28235
526.145
-1.94617
-1.95688
527.765
-1.67753
-1.68747
529.171
-1.44737
-1.4566
530.372
-1.25074
-1.25932
-1.03348
-1.04155
537.802
14.9737
10.3709
128.095
48.1876
33.5372
130.515
129.641
131.646
-22.9272
-10.9121
123.404
23.7505
14.7796
-6.32614
-13.0475
51.7646
32.8812
27.6465
29.1548
28.4654
29.9224
-15.4151
-12.3084
-14.4792
-118.707
-7.27313
-5.60447
-6.67383
-4.93077
-7.25801
-6.7954
5.25735
9.44335
4.28307
0.955662
1.87969
-2.6474
3.70545
-2.63153
-1.26203
-22.6983
7.41055
3.51103
-7.22413
-4.06549
23.0663
2.30844
4.81488
-24.0852
-2.69861
24.4259
-4.76541
1.63289
3.36058
-25.4363
25.7617
-3.39192
-1.92702
1.1935
2.44131
-26.6925
26.9848
-2.50644
-1.42073
0.88578
1.80615
-27.8037
28.0566
-1.88208
-1.06283
0.664928
1.35261
-28.7556
28.969
-1.42757
-0.803324
0.505107
1.02538
-29.5532
29.7302
-1.09375
-0.613721
0.388702
0.78765
-30.2124
30.3579
-0.847442
-0.474473
0.303271
0.613683
-30.754
30.8737
-0.665023
-0.37164
-31.2202
0.915189
1.86215
125.853
-2.18768
-1.32757
-31.2956
-31.2628
-31.336
512.279
-7.40538
-5.0307
-126.625
-127.125
-126.933
-127.404
515.838
-6.1719
-4.18551
518.873
-5.17222
-3.50087
521.47
-4.36366
-2.94972
523.704
-3.70963
-2.50531
525.636
-3.17724
-2.14432
527.317
-2.73924
-1.84786
528.784
-2.37337
-1.60081
530.068
-2.05876
-1.38808
531.178
-1.78364
-1.20528
-1.49726
-1.00257
542.124
14.8945
8.03527
534.713
45.3329
24.4916
131.878
85.6319
46.8959
134.566
133.173
135.079
-23.3542
-31.1857
-21.3942
-28.0219
-45.1127
-13.3862
38.4308
17.9507
33.2174
33.367
33.8355
33.5754
-5.83217
-19.0981
-34.9415
36.9161
16.3205
6.63523
0.680815
-4.45627
-16.6449
11.9594
5.63695
2.82467
2.62312
6.58987
-13.4727
9.88164
-4.09476
-1.52717
9.97164
-30.4027
3.09953
29.6452
-8.75143
-3.56228
1.90039
6.05642
-28.6849
-2.24002
28.566
-5.59793
1.34664
4.26491
-28.4996
28.5377
-4.04428
-1.60537
1.02398
3.21838
-28.7502
28.841
-3.10502
-1.22812
0.799104
2.49565
-29.1585
29.2722
-2.44531
-0.963198
0.629059
1.95652
-29.6267
29.7459
-1.94288
-0.761838
0.497101
1.54105
-30.1009
30.216
-1.54867
-0.604643
0.394389
1.21919
-30.5501
30.656
-1.238
-0.481541
0.31463
0.970182
-30.9582
31.0527
-0.993885
-0.385409
0.252821
0.778269
-31.3193
31.4021
-0.803312
-0.310604
-31.6565
0.78004
2.42766
127.399
-2.61238
-1.13556
-31.7403
-31.6899
-31.7717
516.762
-8.51561
-4.37497
-128.008
-128.561
-128.257
-128.783
519.516
-7.19427
-3.68588
521.925
-6.10627
-3.1183
524.032
-5.20925
-2.65413
525.879
-4.47092
-2.27404
527.503
-3.86121
-1.96137
528.936
-3.35357
-1.70189
530.204
-2.92508
-1.48381
531.327
-2.55418
-1.2948
532.311
-2.22563
-1.13146
-1.88866
-0.948611
545.149
13.5038
5.99862
543.366
39.5188
17.4595
136.564
68.1757
30.388
137.207
136.772
137.519
-32.1995
138.596
27.4809
9.80485
-7.11814
-42.4396
-9.02477
148.537
33.4596
12.1822
-142.715
-9.13826
-1.94731
-155.167
25.2869
9.26029
-7.79113
-8.6784
-7.32886
-1.76528
-1.77526
-1.4682
40.8021
40.4037
39.7529
39.5537
-0.943528
-0.242363
-41.412
40.962
0.327657
1.30829
5.5465
4.22423
-149.516
141.381
-12.7835
-5.27163
5.89225
5.09181
5.43519
5.47969
-134.972
4.42516
130.785
-15.2072
-5.8289
5.18322
5.1986
4.936
4.21719
3.56346
-128.082
126.486
-13.2091
-4.87159
3.99527
4.05235
3.84923
3.31356
2.86616
-125.49
124.933
-11.0833
-3.9894
3.16831
3.20887
3.07334
2.68462
2.35185
-124.641
124.544
-9.33305
-3.30621
2.57884
2.60983
2.51052
2.20464
1.95106
-124.592
124.739
-7.8855
-2.76267
2.12234
2.15054
2.07214
1.81799
1.62298
-124.973
125.259
-6.65677
-2.31265
1.75067
1.77822
1.7138
1.49825
1.34843
-125.598
125.957
-5.60189
-1.93256
1.44296
1.46916
1.41602
1.2336
1.11867
-126.347
126.737
-4.70001
-1.61167
1.18841
1.21241
1.16878
1.01605
0.927941
-127.141
127.532
-3.93639
-1.34312
0.979265
1.0006
0.964941
0.838655
0.771238
-127.926
128.3
-3.29826
-1.121
0.809464
0.827329
0.79892
2.71761
-128.675
0.643428
129.033
-2.77852
-0.940493
521.607
-8.9679
-3.69217
-129.489
-130.037
-129.685
-130.211
523.589
-7.68651
-3.15528
525.374
-6.6081
-2.70417
526.98
-5.70472
-2.32842
528.421
-4.94725
-2.0152
529.714
-4.31185
-1.75377
530.875
-3.77602
-1.53428
531.92
-3.31889
-1.34808
532.861
-2.92025
-1.1856
533.701
-2.56383
-1.04445
-2.19734
-0.88434
547.035
11.4626
4.3288
548.245
32.8608
12.2701
554.149
53.5604
19.9829
567.777
69.73
26.0074
-23.2758
-25.6997
-21.6593
-23.713
147.28
71.5895
26.8402
-26.8553
-25.1026
-24.8102
-23.2077
145.641
146.677
145.337
-20.4211
-3.44114
149.39
17.0131
4.73886
-5.30169
-1.01657
-149.673
148.326
6.1607
1.50421
557.342
-8.29147
-5.04049
7.15644
9.30001
5.99518
8.00752
-145.347
-144.126
-144.847
-143.884
540.765
-20.8211
-9.24635
10.8292
10.6498
9.68994
9.66958
530.497
-25.1088
-10.1277
10.5527
9.9593
9.73611
9.27272
524.632
-25.4113
-9.72174
9.41469
8.84266
8.82808
8.33353
521.509
-24.0446
-8.90917
8.2187
7.72519
7.77765
7.33682
520.101
-22.039
-7.99892
7.12643
6.69634
6.78279
6.39433
519.8
-19.8305
-7.092
6.14304
5.76884
5.87747
5.53434
520.232
-17.6242
-6.2295
5.26641
4.94082
5.06094
4.75976
521.134
-15.5173
-5.43294
4.4925
4.21201
4.33442
4.07286
522.318
-13.5695
-4.71447
3.81863
3.58036
3.69742
3.47361
523.647
-11.8144
-4.07988
3.24044
3.04215
3.14745
2.95998
525.049
-10.2614
-3.52355
2.75363
2.579
2.67904
2.50166
526.416
-8.89585
-3.04881
527.722
-7.73787
-2.64402
528.95
-6.74207
-2.2975
530.093
-5.89031
-2.00252
531.149
-5.16236
-1.75186
532.12
-4.54212
-1.53948
533.012
-4.0124
-1.35904
533.831
-3.55593
-1.2046
534.585
-3.15517
-1.06904
535.272
-2.79441
-0.950844
-2.41927
-0.814512
548.004
9.27668
3.04156
550.54
26.4774
8.53133
555.996
42.1045
13.4258
565.037
53.2328
16.8914
574.792
54.3025
17.12
577.86
41.4757
12.3994
-14.4704
-11.1748
-13.8094
-10.6849
572.138
21.5454
5.85005
-6.35561
-2.94392
-6.30418
-3.12786
560.73
2.91262
-0.360407
550.034
-8.71228
-3.78456
541.89
-14.758
-5.31625
536.308
-17.3184
-5.8028
532.685
-17.8769
-5.74755
530.474
-17.3778
-5.44183
529.251
-16.3202
-5.02018
528.726
-15.005
-4.55367
528.692
-13.5914
-4.08194
528.997
-12.1809
-3.62843
529.527
-10.8373
-3.20724
530.191
-9.59189
-2.82406
530.936
-8.4629
-2.48276
531.703
-7.46485
-2.18406
532.467
-6.58728
-1.92321
533.211
-5.82114
-1.69668
533.925
-5.15443
-1.50065
534.602
-4.57794
-1.33212
535.243
-4.07981
-1.18731
535.848
-3.6469
-1.06243
536.421
-3.26504
-0.952397
536.959
-2.92007
-0.856398
-2.55515
-0.743443
548.367
7.22101
2.10729
551.262
20.8829
5.91315
556.102
33.0821
9.18777
562.712
41.4823
11.3517
569.089
42.6918
11.5425
571.499
34.8775
9.05554
568.677
21.8128
5.27394
562.19
8.52549
1.50477
555.101
-1.30756
-1.04318
548.956
-7.56071
-2.55348
544.179
-11.0939
-3.31992
540.682
-12.762
-3.61721
538.231
-13.2716
-3.6426
536.581
-13.0544
-3.51221
535.533
-12.4287
-3.29642
534.937
-11.5764
-3.03877
534.676
-10.62
-2.76638
534.657
-9.63979
-2.49651
534.811
-8.68326
-2.23914
535.084
-7.78331
-2.00102
535.43
-6.9581
-1.78559
535.82
-6.21418
-1.59291
536.233
-5.55117
-1.42218
536.654
-4.96404
-1.2718
537.076
-4.44932
-1.1407
537.493
-4.00001
-1.0269
537.902
-3.60708
-0.928193
538.306
-3.26006
-0.841208
538.703
-2.94722
-0.76564
-2.60869
-0.674662
548.38
5.44186
1.44919
551.188
16.1748
4.11757
555.38
25.9406
6.39864
560.514
32.7127
7.89468
565.217
34.2351
8.12783
567.41
29.4978
6.78879
566.286
20.7401
4.55632
562.596
11.103
2.16698
557.95
3.09179
0.313512
553.46
-2.69769
-0.970244
549.6
-6.47408
-1.7586
546.506
-8.68575
-2.1922
544.116
-9.79217
-2.38445
542.328
-10.1482
-2.42135
541.026
-10.0262
-2.36109
540.11
-9.60704
-2.24303
539.494
-9.017
-2.09334
539.111
-8.3424
-1.92954
538.906
-7.63965
-1.76296
538.835
-6.94793
-1.60151
538.861
-6.29025
-1.44975
538.957
-5.68141
-1.31023
539.102
-5.12731
-1.18386
539.283
-4.62819
-1.07051
539.487
-4.18502
-0.970332
539.709
-3.79489
-0.88259
539.945
-3.45264
-0.806234
540.196
-3.15158
-0.739266
540.461
-2.88349
-0.681787
-2.58493
-0.6108
548.22
3.95019
0.995042
550.742
12.3048
2.89618
554.343
20.2209
4.55417
558.547
25.8611
5.67715
562.381
27.6162
5.95685
564.556
24.8422
5.24126
564.515
18.91
3.88642
562.576
11.8863
2.32706
559.647
5.49726
0.980734
556.457
0.461751
-0.0525898
553.455
-3.15209
-0.773927
550.845
-5.5254
-1.23541
548.667
-6.92877
-1.5022
546.909
-7.63515
-1.63105
545.517
-7.85547
-1.66571
544.434
-7.75279
-1.63832
543.606
-7.44546
-1.57178
542.985
-7.01794
-1.48227
542.533
-6.52865
-1.38101
542.214
-6.01899
-1.27605
542
-5.5145
-1.17247
541.869
-5.03392
-1.0739
541.801
-4.58698
-0.982266
541.784
-4.17756
-0.898385
541.807
-3.80974
-0.823187
541.862
-3.48387
-0.756793
541.946
-3.19828
-0.698976
542.06
-2.94995
-0.64885
542.206
-2.73582
-0.606874
-2.48881
-0.553632
547.962
2.75487
0.68758
550.139
9.15783
2.07243
553.237
15.5581
3.33765
556.836
20.2715
4.23131
560.223
22.0851
4.54127
562.5
20.5759
4.17879
563.196
16.6061
3.34014
562.44
11.5143
2.29718
560.724
6.55185
1.30883
558.569
2.34804
0.486317
556.314
-0.862759
-0.140431
554.184
-3.14315
-0.58442
552.285
-4.63185
-0.877457
550.644
-5.50735
-1.05452
549.259
-5.93379
-1.14662
548.106
-6.04513
-1.17836
547.159
-5.94444
-1.16863
546.388
-5.70847
-1.13158
545.766
-5.39262
-1.07758
545.27
-5.03712
-1.0144
544.877
-4.66768
-0.947196
544.571
-4.30423
-0.880028
544.335
-3.9583
-0.815391
544.158
-3.63595
-0.754708
544.029
-3.34319
-0.699407
543.943
-3.08272
-0.650187
543.895
-2.85597
-0.607398
543.886
-2.66329
-0.571053
543.922
-2.50898
-0.541957
-2.32385
-0.504189
547.683
1.81817
0.481312
549.506
6.61381
1.53052
552.2
11.6657
2.5397
555.414
15.4997
3.28761
558.575
17.2077
3.61216
560.98
16.5184
3.45486
562.239
13.9352
2.93014
562.332
10.3407
2.21328
561.532
6.62005
1.47803
560.172
3.29051
0.820668
558.557
0.593965
0.282777
556.88
-1.42564
-0.128611
555.268
-2.83263
-0.425286
553.786
-3.73761
-0.627099
552.461
-4.25693
-0.754579
551.298
-4.49375
-0.825829
550.291
-4.53198
-0.855886
549.427
-4.43668
-0.856715
548.691
-4.25651
-0.837597
548.067
-4.02768
-0.805762
547.542
-3.77409
-0.766282
547.1
-3.5147
-0.723338
546.731
-3.26128
-0.67974
546.423
-3.0208
-0.637301
546.169
-2.80006
-0.597764
545.962
-2.60329
-0.562229
545.798
-2.43447
-0.531422
545.677
-2.29663
-0.506077
545.609
-2.20424
-0.487326
-2.09056
-0.462886
547.391
1.10084
0.339975
548.907
4.54089
1.17678
551.305
8.30445
2.02708
554.296
11.2303
2.68319
557.357
12.7059
3.01525
559.923
12.5221
2.98201
561.616
10.9603
2.65434
562.339
8.57201
2.14949
562.24
5.94
1.58951
561.538
3.46775
1.05488
560.459
1.37219
0.589234
559.188
-0.270028
0.209956
557.854
-1.4722
-0.0829795
556.543
-2.29433
-0.298759
555.306
-2.81175
-0.450015
554.168
-3.09754
-0.549601
553.138
-3.21463
-0.609204
552.219
-3.21379
-0.638784
551.406
-3.13426
-0.646523
550.69
-3.0059
-0.639085
550.063
-2.84902
-0.621386
549.516
-2.67996
-0.597611
549.039
-2.50934
-0.570752
548.625
-2.34394
-0.542897
548.264
-2.19039
-0.515994
547.952
-2.05348
-0.491437
547.685
-1.9391
-0.470166
547.459
-1.85145
-0.453457
547.288
-1.81764
-0.442659
-1.78355
-0.429628
547.153
0.561405
0.233417
548.426
2.81562
0.951371
550.623
5.28814
1.71463
553.469
7.27422
2.3186
556.504
8.39472
2.66071
559.228
8.49226
2.71067
561.286
7.68724
2.51331
562.528
6.28434
2.14989
562.999
4.63366
1.71023
562.841
3.00471
1.26217
562.228
1.56367
0.848734
561.321
0.387576
0.49268
560.252
-0.510502
0.20175
559.117
-1.15538
-0.0258786
557.982
-1.58862
-0.196976
556.888
-1.8552
-0.320246
555.86
-1.99645
-0.404634
554.911
-2.04714
-0.458411
554.045
-2.03503
-0.488801
553.261
-1.98178
-0.501967
552.556
-1.90249
-0.502697
551.923
-1.80951
-0.495154
551.357
-1.71108
-0.482473
550.851
-1.61286
-0.466966
550.399
-1.52025
-0.45073
549.993
-1.43758
-0.435399
549.63
-1.37173
-0.422014
549.304
-1.32566
-0.412198
549.022
-1.3376
-0.407177
-1.38426
-0.403902
547.004
0.185481
0.136117
548.101
1.32655
0.825938
550.136
2.51082
1.55114
552.864
3.5233
2.13538
555.892
4.1651
2.50179
558.781
4.33785
2.62344
561.18
4.06645
2.52476
562.892
3.47155
2.26326
563.886
2.70889
1.90781
564.234
1.91146
1.51777
564.065
1.17185
1.13602
563.518
0.54173
0.789415
562.721
0.0394304
0.491586
561.776
-0.338566
0.2465
560.762
-0.607312
0.0520164
559.733
-0.786491
-0.0971903
558.728
-0.895927
-0.207803
557.769
-0.953261
-0.286699
556.868
-0.973117
-0.340325
556.032
-0.967225
-0.374461
555.262
-0.944059
-0.393836
554.557
-0.910601
-0.402646
553.912
-0.871645
-0.40418
553.323
-0.830676
-0.400997
552.784
-0.790927
-0.395344
552.29
-0.755033
-0.38908
551.832
-0.728715
-0.383339
551.403
-0.712374
-0.379884
550.993
-0.742074
-0.379137
-0.841063
-0.384446
546.941
0.0639315
547.912
0.758743
549.724
1.48097
552.258
2.08631
555.229
2.51225
558.266
2.72859
561.022
2.74014
563.255
2.58219
564.853
2.30672
565.813
1.96613
566.206
1.60392
566.137
1.25185
565.719
0.930267
565.059
0.649719
564.243
0.413692
563.342
0.221064
562.406
0.0679626
561.47
-0.0507924
560.559
-0.140739
559.687
-0.207275
558.861
-0.255184
558.086
-0.288797
557.361
-0.311723
556.686
-0.326899
556.055
-0.336894
555.464
-0.343921
554.902
-0.349254
554.359
-0.355361
553.791
-0.360041
-0.373592
535.567
6.02664
16.5141
126.028
20.0379
54.4023
126.812
129.109
129.662
-26.1882
119.459
5.86232
26.8955
-14.8471
-27.0337
25.3269
1.77026
14.7836
0.302125
1.22454
-0.0164659
-1.51008
-19.7366
9.07473
-1.04399
-8.81245
20.5183
5.76726
-22.219
-0.651622
22.7217
-5.61829
3.90326
-24.1317
24.5691
-0.449812
-3.89081
2.7653
-25.7837
26.1554
-0.323645
-2.81328
2.0028
-27.1731
27.4809
-0.236996
-2.07364
1.47353
-28.3162
28.5668
-0.175835
-1.54835
1.10119
-29.2433
29.4455
-0.132262
-1.1711
0.836393
-29.99
30.1527
-0.10096
-0.898058
0.645909
-30.5912
30.7225
-0.0782766
-0.698995
-31.0933
1.96003
125.356
-0.46812
-2.29725
-31.1024
-31.1733
-31.1819
510.556
-2.68848
-7.80852