/*--------------------------------*- C++ -*----------------------------------*\
  =========                 |
  \\      /  F ield         | OpenFOAM: The Open Source CFD Toolbox
   \\    /   O peration     | Website:  https://openfoam.org
    \\  /    A nd           | Version:  7
     \\/     M anipulation  |
\*---------------------------------------------------------------------------*/
FoamFile
{
    version     2.0;
    format      ascii;
    class       volVectorField;
    location    "500";
    object      U;
}
// * * * * * * * * * * * * * * * * * * * * * * * * * * * * * * * * * * * * * //

dimensions      [0 1 -1 0 0 0 0];

internalField   nonuniform List<vector> 
27370
(
(13.8846 0.0862896 0.0857579)
(13.0647 0.333597 0.332429)
(11.0084 0.373451 0.364863)
(5.10007 0.518522 0.484043)
(-0.739811 -0.0927768 -0.114367)
(2.87396 -0.169274 -0.179057)
(6.10526 -0.125688 -0.12871)
(8.30856 -0.0841143 -0.0850424)
(9.76877 -0.0560364 -0.0563721)
(10.7519 -0.0382312 -0.038382)
(11.4334 -0.0268975 -0.0269809)
(11.9204 -0.0195023 -0.0195567)
(12.2787 -0.0145389 -0.0145788)
(12.5844 -0.0214762 -0.0215381)
(12.8433 -0.0315368 -0.0316369)
(12.9907 -0.0254814 -0.0255695)
(13.1085 -0.0207444 -0.0208231)
(13.2057 -0.0170938 -0.017165)
(13.2867 -0.0142524 -0.0143173)
(13.3547 -0.0120031 -0.0120627)
(13.4125 -0.010196 -0.0102509)
(13.4617 -0.00872806 -0.00877885)
(13.5047 -0.00745812 -0.00750515)
(13.5388 -0.00649491 -0.00653853)
(13.5795 -0.00503031 -0.00507129)
(13.8902 0.228731 0.0749239)
(13.2562 0.845352 0.278206)
(11.6605 1.60234 0.313587)
(7.24565 3.7508 0.411805)
(1.55302 -1.39579 -0.151518)
(5.33115 -1.40904 -0.158003)
(7.65447 -0.953967 -0.107243)
(9.20251 -0.64354 -0.0719955)
(10.2856 -0.441737 -0.0492472)
(11.0612 -0.310082 -0.0345069)
(11.6269 -0.223086 -0.0248044)
(12.0471 -0.164471 -0.0182807)
(12.3653 -0.124111 -0.0137972)
(12.6547 -0.102108 -0.020417)
(12.9055 -0.0898082 -0.0298536)
(13.0386 -0.0730916 -0.0242835)
(13.1464 -0.0598723 -0.0198914)
(13.2362 -0.0495554 -0.0164755)
(13.3117 -0.0414668 -0.0137977)
(13.3756 -0.0350316 -0.0116649)
(13.4301 -0.0298382 -0.00994261)
(13.4768 -0.0255914 -0.00853649)
(13.5177 -0.0219465 -0.00731962)
(13.5505 -0.0189781 -0.00639254)
(13.5895 -0.0152629 -0.00495515)
(13.9145 0.303938 0.059921)
(13.5043 1.03086 0.202792)
(12.6372 2.053 0.221353)
(10.763 4.5458 0.263698)
(0.722452 -0.00921152 0.0529534)
(8.18384 -2.66171 -0.150877)
(9.16665 -1.72729 -0.0998905)
(9.96034 -1.19331 -0.0700228)
(10.6332 -0.85615 -0.0503512)
(11.1926 -0.626207 -0.036781)
(11.6502 -0.464413 -0.0272388)
(12.0203 -0.349206 -0.0204617)
(12.318 -0.266467 -0.0156047)
(12.5577 -0.206546 -0.0120934)
(12.7972 -0.164453 -0.0181899)
(13.0151 -0.134828 -0.0267842)
(13.1246 -0.110995 -0.0220387)
(13.2155 -0.0919437 -0.0182409)
(13.2925 -0.076789 -0.0152411)
(13.3583 -0.0647331 -0.0128578)
(13.4147 -0.0550338 -0.010939)
(13.4633 -0.0471322 -0.00937535)
(13.5054 -0.0406048 -0.00808899)
(13.5426 -0.0350141 -0.00697037)
(13.5728 -0.0302086 -0.00611437)
(13.6089 -0.0250518 -0.00476482)
(13.9542 0.317112 0.0457771)
(13.7146 1.01793 0.143521)
(13.4643 2.06604 0.295706)
(13.1924 3.66895 0.280229)
(14.1388 6.41856 0.257023)
(11.529 -5.612 -0.185994)
(11.6508 -3.27485 -0.132894)
(11.3486 -2.00256 -0.0794218)
(11.393 -1.4234 -0.0563869)
(11.5647 -1.07135 -0.0425606)
(11.7865 -0.827718 -0.0329028)
(12.0207 -0.646226 -0.0256629)
(12.2469 -0.507071 -0.0201111)
(12.4541 -0.399781 -0.0158393)
(12.6378 -0.317158 -0.012557)
(12.7972 -0.253799 -0.0100416)
(12.9767 -0.2033 -0.0154627)
(13.1509 -0.163947 -0.0230913)
(13.234 -0.136912 -0.019273)
(13.3051 -0.114937 -0.0161633)
(13.3669 -0.0970954 -0.0136595)
(13.4207 -0.0826428 -0.0116349)
(13.4677 -0.0708423 -0.00998179)
(13.5089 -0.0611102 -0.00861891)
(13.5451 -0.0529823 -0.00748694)
(13.5774 -0.0459802 -0.00649537)
(13.604 -0.0398485 -0.0057324)
(13.6363 -0.0334781 -0.00451406)
(13.9814 0.295963 0.0336843)
(13.8828 0.894334 0.0992877)
(13.8434 1.63428 0.178952)
(13.946 2.52031 0.144738)
(14.8118 3.23102 0.187768)
(16.4343 2.99349 0.0909873)
(17.2911 0.285908 0.00908959)
(14.8057 -1.56213 -0.0947762)
(13.3992 -1.54432 -0.0918045)
(12.8684 -1.24383 -0.073355)
(12.6812 -1.00258 -0.0586479)
(12.6374 -0.822187 -0.0478139)
(12.6629 -0.680582 -0.0394404)
(12.7257 -0.564381 -0.0326348)
(12.8083 -0.467306 -0.0269819)
(12.8994 -0.386307 -0.022284)
(12.9914 -0.319283 -0.0184112)
(13.0795 -0.264292 -0.0152553)
(13.1628 -0.220181 -0.0127139)
(13.2948 -0.17828 -0.0193311)
(13.353 -0.151153 -0.0163864)
(13.4049 -0.128687 -0.0139432)
(13.4514 -0.110082 -0.0119344)
(13.493 -0.0947123 -0.0102771)
(13.53 -0.0819548 -0.00890268)
(13.5632 -0.0712895 -0.0077547)
(13.5927 -0.0622792 -0.00679145)
(13.6196 -0.0544543 -0.00594083)
(13.6421 -0.0475242 -0.00528327)
(13.67 -0.0403402 -0.00421696)
(13.9972 0.256947 0.0240217)
(13.987 0.744742 0.0684491)
(14.0359 1.2523 0.113843)
(14.2856 1.67917 0.153349)
(14.7799 1.75285 0.160319)
(15.2786 1.52536 0.072479)
(15.362 0.443328 0.0195882)
(14.5162 -0.386158 -0.0405698)
(13.9567 -0.623331 -0.0607612)
(13.6066 -0.668279 -0.0618838)
(13.412 -0.632472 -0.0571205)
(13.3091 -0.571994 -0.0509994)
(13.2613 -0.507459 -0.0449)
(13.2484 -0.445159 -0.0391857)
(13.2584 -0.387168 -0.0339548)
(13.283 -0.334445 -0.0292567)
(13.3165 -0.287472 -0.0251126)
(13.3543 -0.246362 -0.0215261)
(13.3944 -0.210391 -0.0184468)
(13.434 -0.180604 -0.0158364)
(13.4716 -0.155592 -0.0136451)
(13.5068 -0.134325 -0.0117898)
(13.5396 -0.11637 -0.0102247)
(13.5697 -0.101243 -0.00890675)
(13.5972 -0.0884746 -0.00779588)
(13.6224 -0.0776521 -0.00685583)
(13.6454 -0.0684066 -0.00605937)
(13.6668 -0.0603123 -0.00535088)
(13.6849 -0.0530813 -0.00480159)
(13.7082 -0.0455192 -0.0038948)
(14.0059 0.211174 0.0167228)
(14.0406 0.602715 0.0468263)
(14.1267 0.969472 0.0744797)
(14.3222 1.24187 0.0951356)
(14.6166 1.26608 0.0968999)
(14.8448 0.927028 0.0682351)
(14.8034 0.410635 0.0285161)
(14.5136 -0.0468628 -0.00710763)
(14.1801 -0.296184 -0.0249123)
(13.9228 -0.404487 -0.0319319)
(13.7468 -0.435203 -0.0334332)
(13.6325 -0.427218 -0.0322806)
(13.5623 -0.401182 -0.0299948)
(13.5228 -0.367374 -0.0272782)
(13.5048 -0.33094 -0.0244556)
(13.5017 -0.294667 -0.0217026)
(13.5091 -0.260176 -0.0191197)
(13.5232 -0.22845 -0.0167661)
(13.5416 -0.199651 -0.0146589)
(13.5624 -0.174418 -0.0128096)
(13.5841 -0.152495 -0.011214)
(13.6057 -0.133465 -0.0098289)
(13.6268 -0.117052 -0.00863411)
(13.6469 -0.102954 -0.00760881)
(13.6659 -0.0908621 -0.00673113)
(13.6839 -0.0804788 -0.00597921)
(13.7007 -0.07152 -0.00533686)
(13.7168 -0.0636242 -0.00476247)
(13.7307 -0.0565284 -0.00431698)
(13.7494 -0.048993 -0.00356774)
(14.0095 0.166353 0.0114791)
(14.0622 0.476336 0.0320283)
(14.1562 0.754265 0.0499289)
(14.3124 0.948948 0.0620871)
(14.509 0.970532 0.0630759)
(14.6513 0.762362 0.0483462)
(14.6428 0.435085 0.0265123)
(14.492 0.11605 0.00549761)
(14.2886 -0.0992216 -0.00792797)
(14.1055 -0.224011 -0.0154379)
(13.9611 -0.286327 -0.0189728)
(13.8547 -0.309267 -0.0200807)
(13.7798 -0.309136 -0.0198364)
(13.7292 -0.296078 -0.0188639)
(13.6968 -0.276144 -0.0175155)
(13.6779 -0.252994 -0.0160034)
(13.6691 -0.228897 -0.0144578)
(13.6676 -0.205308 -0.0129602)
(13.6712 -0.183008 -0.0115539)
(13.6785 -0.162468 -0.0102737)
(13.688 -0.144061 -0.0091304)
(13.6988 -0.127704 -0.00811312)
(13.7103 -0.113294 -0.00721692)
(13.7221 -0.100692 -0.00643372)
(13.7338 -0.0897221 -0.00575329)
(13.7454 -0.0801928 -0.00516387)
(13.7567 -0.0719061 -0.00465719)
(13.7679 -0.064574 -0.00420337)
(13.7779 -0.0579734 -0.00385244)
(13.7922 -0.0508152 -0.00325211)
(14.01 0.126633 0.00782355)
(14.0659 0.369917 0.0220236)
(14.1552 0.58827 0.0342481)
(14.2827 0.739017 0.042309)
(14.4267 0.766346 0.0434155)
(14.5307 0.641292 0.0355646)
(14.543 0.424993 0.0230224)
(14.4656 0.196954 0.00998215)
(14.3416 0.0191461 0.000229221)
(14.2142 -0.101852 -0.00626737)
(14.1019 -0.175632 -0.0101399)
(14.0107 -0.214864 -0.0121346)
(13.94 -0.231004 -0.012909)
(13.8869 -0.232381 -0.0129182)
(13.8482 -0.224712 -0.0124621)
(13.8209 -0.211803 -0.0117389)
(13.8024 -0.196167 -0.0108788)
(13.7908 -0.179482 -0.00996811)
(13.7844 -0.162791 -0.00906043)
(13.782 -0.146771 -0.00819341)
(13.7824 -0.131901 -0.00738983)
(13.785 -0.118332 -0.00665561)
(13.7889 -0.10612 -0.00599428)
(13.7939 -0.0952525 -0.00540562)
(13.7995 -0.0856621 -0.00488689)
(13.8056 -0.0772484 -0.00443315)
(13.8119 -0.0698947 -0.00404164)
(13.8188 -0.0633899 -0.00369231)
(13.8253 -0.0575677 -0.00342413)
(13.8354 -0.0510804 -0.00296006)
(14.0087 0.0932692 0.00533329)
(14.0603 0.282672 0.0153267)
(14.14 0.458085 0.0240921)
(14.2466 0.581321 0.0299646)
(14.3611 0.614092 0.0313153)
(14.4477 0.540036 0.0271442)
(14.475 0.39499 0.0196575)
(14.4412 0.22971 0.0112612)
(14.3682 0.0866938 0.00421238)
(14.2821 -0.0214173 -0.00106487)
(14.198 -0.0954432 -0.0046624)
(14.1234 -0.141421 -0.00689594)
(14.0608 -0.166587 -0.00813375)
(14.01 -0.177222 -0.00867892)
(13.9697 -0.178152 -0.00876005)
(13.9383 -0.172877 -0.00854125)
(13.9144 -0.163857 -0.00813805)
(13.8964 -0.15281 -0.00763149)
(13.8833 -0.140881 -0.00707638)
(13.8741 -0.128852 -0.00651115)
(13.8679 -0.117255 -0.00596256)
(13.8641 -0.106375 -0.00544437)
(13.8622 -0.0963696 -0.00496536)
(13.8616 -0.0873138 -0.00453037)
(13.8622 -0.0792205 -0.00414142)
(13.8637 -0.0720638 -0.00379827)
(13.8658 -0.0658001 -0.0035018)
(13.8688 -0.0602953 -0.00324036)
(13.8721 -0.0554635 -0.00304211)
(13.8785 -0.0498933 -0.00269976)
(14.0063 0.0662056 0.00366741)
(14.0502 0.212105 0.0108911)
(14.1195 0.354068 0.0174775)
(14.2109 0.45695 0.0220748)
(14.3083 0.492618 0.0235906)
(14.3873 0.450777 0.0214615)
(14.4262 0.353236 0.0168789)
(14.421 0.233309 0.0113085)
(14.3828 0.120832 0.00616884)
(14.3275 0.0289535 0.00196213)
(14.2669 -0.0391964 -0.00118941)
(14.208 -0.0856787 -0.00338051)
(14.1548 -0.114621 -0.00479535)
(14.1086 -0.130424 -0.00562311)
(14.0694 -0.136888 -0.00602697)
(14.0367 -0.136979 -0.00613349)
(14.0099 -0.132912 -0.00603872)
(13.9881 -0.126304 -0.00581407)
(13.9706 -0.11829 -0.00551105)
(13.9566 -0.109665 -0.00516711)
(13.9456 -0.10098 -0.00480953)
(13.937 -0.0925811 -0.00445563)
(13.9304 -0.0846816 -0.00411734)
(13.9255 -0.0774101 -0.00380256)
(13.9219 -0.0708353 -0.00351641)
(13.9195 -0.0649879 -0.00326185)
(13.9181 -0.0598881 -0.00304205)
(13.9177 -0.0554761 -0.00285273)
(13.918 -0.0517819 -0.00271153)
(13.9208 -0.0473426 -0.00247599)
(14.0032 0.0448676 0.00256113)
(14.0384 0.155357 0.00798577)
(14.0982 0.269 0.0131848)
(14.1786 0.354001 0.0169976)
(14.2665 0.389343 0.0185976)
(14.3429 0.368082 0.0176329)
(14.3912 0.303597 0.0147837)
(14.4062 0.217863 0.0109857)
(14.3929 0.131848 0.00717509)
(14.3612 0.057129 0.00381476)
(14.3198 -0.0017632 0.00110076)
(14.275 -0.0446429 -0.000947867)
(14.2311 -0.0735543 -0.00240493)
(14.1903 -0.0913565 -0.00337976)
(14.1536 -0.100836 -0.00398127)
(14.1213 -0.104353 -0.00430311)
(14.0933 -0.103771 -0.00442211)
(14.0693 -0.10051 -0.00439898)
(14.0488 -0.0956083 -0.00428017)
(14.0315 -0.0898103 -0.00410092)
(14.017 -0.0836461 -0.00388787)
(14.0048 -0.0774698 -0.00365986)
(13.9946 -0.0715154 -0.00343056)
(13.9861 -0.0659382 -0.00320981)
(13.9792 -0.0608395 -0.00300472)
(13.9735 -0.0562891 -0.00282053)
(13.9689 -0.0523609 -0.00266159)
(13.9654 -0.0490615 -0.00253027)
(13.9631 -0.0465858 -0.0024337)
(13.9625 -0.0434743 -0.00229086)
(13.9999 0.0284973 0.00181078)
(14.0267 0.109658 0.00610067)
(14.0789 0.197362 0.0104418)
(14.152 0.264705 0.0137706)
(14.2346 0.296666 0.015415)
(14.311 0.288382 0.0151419)
(14.3674 0.247737 0.0133659)
(14.3975 0.188786 0.0107077)
(14.403 0.125897 0.00781567)
(14.3897 0.0683209 0.00508732)
(14.3641 0.0206347 0.00273545)
(14.3317 -0.0158805 0.000838655)
(14.2966 -0.0419568 -0.000612313)
(14.2614 -0.0592565 -0.00167038)
(14.2278 -0.0696754 -0.00240325)
(14.1967 -0.0749628 -0.00287779)
(14.1685 -0.0765813 -0.00315393)
(14.1433 -0.0756883 -0.00328237)
(14.1209 -0.0731603 -0.00330423)
(14.1013 -0.0696436 -0.00325221)
(14.0841 -0.0656068 -0.00315204)
(14.0691 -0.0613767 -0.0030231)
(14.0561 -0.057178 -0.00288011)
(14.0447 -0.0531683 -0.00273423)
(14.0349 -0.0494615 -0.00259386)
(14.0264 -0.0461484 -0.00246602)
(14.0192 -0.0433447 -0.00235522)
(14.0129 -0.0411063 -0.0022702)
(14.0081 -0.0398442 -0.00220651)
(14.0039 -0.0382463 -0.002144)
(13.9971 0.0161885 0.00125238)
(14.017 0.0724939 0.00490787)
(14.0636 0.135005 0.0087782)
(14.1318 0.184067 0.0118316)
(14.2116 0.210104 0.0135266)
(14.2894 0.209575 0.0137039)
(14.3528 0.186464 0.012626)
(14.3952 0.149097 0.0107203)
(14.4158 0.106677 0.00845818)
(14.4176 0.0658805 0.0061778)
(14.4055 0.0305774 0.00409154)
(14.384 0.00235567 0.00230863)
(14.357 -0.0187388 0.000861781)
(14.3273 -0.0335217 -0.000262844)
(14.2972 -0.0431457 -0.00110239)
(14.2678 -0.0487812 -0.00170241)
(14.24 -0.0514666 -0.00210882)
(14.2143 -0.052058 -0.00236367)
(14.1907 -0.0512252 -0.00250335)
(14.1693 -0.0494748 -0.00255821)
(14.1501 -0.0471813 -0.00255311)
(14.1329 -0.044614 -0.00250773)
(14.1175 -0.0419635 -0.00243756)
(14.1038 -0.0393692 -0.00235483)
(14.0915 -0.0369379 -0.00226885)
(14.0806 -0.034763 -0.00218823)
(14.0708 -0.0329831 -0.00211676)
(14.0619 -0.0316752 -0.00206952)
(14.0547 -0.0314783 -0.00202753)
(14.0464 -0.0315092 -0.00203434)
(13.9961 0.00646405 0.000725651)
(14.0109 0.0416564 0.00427087)
(14.053 0.0790124 0.00794999)
(14.117 0.109316 0.0108951)
(14.1946 0.12738 0.0127071)
(14.2743 0.130593 0.013251)
(14.3447 0.120164 0.012677)
(14.3983 0.100261 0.0112911)
(14.4325 0.0759448 0.00945397)
(14.4484 0.051318 0.00746403)
(14.4489 0.0290774 0.00553436)
(14.438 0.0105968 0.00379614)
(14.4191 -0.00376298 0.00231265)
(14.3953 -0.0142691 0.00109937)
(14.369 -0.0214915 0.000142263)
(14.3419 -0.0260899 -0.000587613)
(14.3151 -0.028692 -0.00112507)
(14.2893 -0.0298372 -0.00150533)
(14.265 -0.0299603 -0.00176099)
(14.2424 -0.0293976 -0.00192067)
(14.2216 -0.0284009 -0.00200866)
(14.2025 -0.0271564 -0.00204506)
(14.185 -0.0257953 -0.00204605)
(14.1691 -0.0244208 -0.00202499)
(14.1546 -0.0231078 -0.00199187)
(14.1413 -0.0219306 -0.00195685)
(14.1292 -0.0210251 -0.00192263)
(14.1176 -0.0204058 -0.00190924)
(14.1081 -0.0209134 -0.00188227)
(14.0941 -0.0225155 -0.0019485)
(13.9983 0.000679143 0.000315486)
(14.0092 0.0162369 0.00396629)
(14.0448 0.0332657 0.00770369)
(14.1027 0.0486813 0.0107974)
(14.1765 0.0598991 0.0129514)
(14.2571 0.065113 0.0140068)
(14.3346 0.0639447 0.0139995)
(14.4006 0.0574941 0.013125)
(14.4505 0.0477102 0.0116625)
(14.4829 0.0365272 0.00988337)
(14.4992 0.0254678 0.00800978)
(14.5019 0.0155256 0.0062029)
(14.4942 0.0071975 0.00456346)
(14.4789 0.000612036 0.0031419)
(14.4586 -0.00433043 0.00195297)
(14.4355 -0.00785185 0.000988241)
(14.411 -0.0102167 0.000226064)
(14.3862 -0.0116831 -0.000361314)
(14.3619 -0.0124775 -0.000803028)
(14.3385 -0.012787 -0.00112689)
(14.3164 -0.0127593 -0.00135786)
(14.2955 -0.0125082 -0.0015176)
(14.276 -0.0121185 -0.00162424)
(14.2578 -0.0116552 -0.00169325)
(14.2409 -0.0111702 -0.00173646)
(14.225 -0.0107011 -0.00176624)
(14.2104 -0.0103364 -0.0017854)
(14.1954 -0.0100669 -0.00181817)
(14.1841 -0.0102538 -0.00181931)
(14.1607 -0.0118164 -0.00191704)
(13.8901 0.0750419 0.228255)
(13.256 0.278862 0.843587)
(11.659 0.314707 1.59697)
(7.24924 0.412453 3.75667)
(1.64205 -0.152102 -1.55654)
(5.37943 -0.154504 -1.46279)
(7.66774 -0.105616 -0.97049)
(9.20596 -0.0713858 -0.649328)
(10.2866 -0.0489954 -0.444114)
(11.0615 -0.0343827 -0.311253)
(11.627 -0.0247316 -0.223772)
(12.0472 -0.0182313 -0.164934)
(12.3654 -0.01376 -0.124458)
(12.6547 -0.020359 -0.10241)
(12.9055 -0.0297603 -0.0901015)
(13.0386 -0.0242007 -0.0733508)
(13.1464 -0.019817 -0.0601046)
(13.2362 -0.0164078 -0.0497658)
(13.3117 -0.0137357 -0.041659)
(13.3756 -0.0116079 -0.0352082)
(13.4301 -0.00988985 -0.0300012)
(13.4768 -0.00848761 -0.0257423)
(13.5177 -0.00727429 -0.0220862)
(13.5505 -0.00635044 -0.0191078)
(13.5895 -0.00491557 -0.0153847)
(13.902 0.202017 0.201791)
(13.3913 0.719592 0.718298)
(12.1389 1.37711 1.37357)
(8.81545 3.15785 3.14513)
(4.6255 -1.60666 -1.61534)
(7.2417 -1.19552 -1.21206)
(8.77089 -0.80406 -0.812832)
(9.86989 -0.55532 -0.559194)
(10.694 -0.391587 -0.393402)
(11.3185 -0.28144 -0.282415)
(11.7946 -0.20632 -0.206924)
(12.1604 -0.15432 -0.154743)
(12.4446 -0.117742 -0.118066)
(12.7192 -0.0970063 -0.0972892)
(12.9627 -0.0849383 -0.085212)
(13.0833 -0.069534 -0.0697779)
(13.1822 -0.0572676 -0.0574874)
(13.2653 -0.0476145 -0.0478146)
(13.3357 -0.0399949 -0.0401784)
(13.3956 -0.033899 -0.0340682)
(13.4471 -0.0289564 -0.0291129)
(13.4915 -0.0248972 -0.0250424)
(13.5303 -0.021409 -0.0215437)
(13.562 -0.0185524 -0.0186776)
(13.5993 -0.0149553 -0.015073)
(13.9299 0.273262 0.1636)
(13.5842 0.907138 0.541373)
(12.8898 1.79941 0.991998)
(11.8638 4.0752 2.27836)
(11.2131 9.45541 4.83278)
(5.36185 -2.87695 -1.34648)
(9.34043 -2.18925 -1.13616)
(9.9312 -1.46836 -0.770873)
(10.4858 -1.04139 -0.550984)
(10.9941 -0.763285 -0.404403)
(11.4412 -0.568808 -0.301116)
(11.823 -0.428645 -0.226691)
(12.1421 -0.326605 -0.172606)
(12.4055 -0.2519 -0.133071)
(12.622 -0.196937 -0.103995)
(12.8512 -0.15688 -0.086985)
(13.0641 -0.128019 -0.0767302)
(13.1638 -0.105911 -0.0635025)
(13.2474 -0.0881412 -0.0528219)
(13.3189 -0.0739086 -0.0442982)
(13.3803 -0.0625174 -0.0374841)
(13.4333 -0.0533083 -0.0319755)
(13.4793 -0.0457748 -0.0274699)
(13.5193 -0.0395284 -0.023742)
(13.5546 -0.0341686 -0.0205219)
(13.5838 -0.0295315 -0.0178699)
(13.6183 -0.0246 -0.0145022)
(13.9636 0.290113 0.126126)
(13.7687 0.915295 0.392216)
(13.5945 1.80567 0.770806)
(13.4316 3.15951 1.21974)
(14.3646 5.23599 1.87109)
(20.2528 7.86681 2.75772)
(16.5772 -5.77012 -1.97861)
(12.091 -2.73872 -0.983929)
(11.69 -1.75483 -0.627785)
(11.6763 -1.2735 -0.455234)
(11.7934 -0.972265 -0.348023)
(11.9663 -0.760237 -0.272188)
(12.1595 -0.600089 -0.214673)
(12.3531 -0.475562 -0.169949)
(12.5353 -0.378209 -0.135042)
(12.7001 -0.302277 -0.107868)
(12.8456 -0.243403 -0.0867852)
(13.0192 -0.194867 -0.0742242)
(13.1909 -0.156353 -0.066427)
(13.2669 -0.13109 -0.0557163)
(13.3325 -0.110471 -0.0469181)
(13.39 -0.0936397 -0.0397736)
(13.4404 -0.0799361 -0.0339672)
(13.4846 -0.0687014 -0.0292096)
(13.5236 -0.0594035 -0.0252748)
(13.5579 -0.0516139 -0.0219896)
(13.5887 -0.0448922 -0.0191321)
(13.6143 -0.0389684 -0.016765)
(13.6452 -0.0328966 -0.0137266)
(13.9859 0.27378 0.0936481)
(13.9122 0.818324 0.275732)
(13.8919 1.47103 0.489734)
(13.9938 2.27288 0.657726)
(14.7836 2.84009 0.826957)
(16.0722 2.17361 0.64274)
(16.759 0.353655 0.0926809)
(14.7777 -1.22846 -0.370022)
(13.5371 -1.33025 -0.396719)
(13.0146 -1.11275 -0.3294)
(12.814 -0.913577 -0.268251)
(12.7539 -0.757392 -0.221057)
(12.763 -0.632183 -0.183853)
(12.8102 -0.528171 -0.153261)
(12.8787 -0.440369 -0.127584)
(12.9575 -0.36636 -0.106026)
(13.0392 -0.304525 -0.0880838)
(13.1188 -0.253368 -0.0733138)
(13.1953 -0.212014 -0.0612856)
(13.3266 -0.170698 -0.0558228)
(13.3799 -0.145213 -0.047521)
(13.4279 -0.124014 -0.040571)
(13.4712 -0.106381 -0.0348151)
(13.5101 -0.0917565 -0.030048)
(13.545 -0.0795769 -0.0260821)
(13.5763 -0.0693653 -0.0227611)
(13.6044 -0.0607163 -0.0199613)
(13.63 -0.0531958 -0.0175077)
(13.6516 -0.0464953 -0.0154644)
(13.6783 -0.03965 -0.0128047)
(13.9995 0.239712 0.0672778)
(14.0008 0.69174 0.19184)
(14.0591 1.15064 0.315895)
(14.2973 1.52552 0.413821)
(14.7403 1.584 0.435589)
(15.1971 1.40894 0.323164)
(15.2693 0.450363 0.0985565)
(14.5149 -0.300673 -0.0969455)
(14.0098 -0.539188 -0.157564)
(13.6767 -0.598001 -0.166296)
(13.4835 -0.576272 -0.156462)
(13.3769 -0.527048 -0.141405)
(13.3237 -0.471352 -0.125605)
(13.3048 -0.416194 -0.110415)
(13.3086 -0.364065 -0.0962795)
(13.3271 -0.316136 -0.0834235)
(13.3548 -0.273034 -0.0719678)
(13.3876 -0.235022 -0.0619588)
(13.4232 -0.201595 -0.0532807)
(13.4591 -0.173552 -0.0459163)
(13.4934 -0.149913 -0.0396875)
(13.5259 -0.129752 -0.0343794)
(13.5563 -0.112668 -0.0298796)
(13.5844 -0.0982295 -0.026078)
(13.6104 -0.0860085 -0.0228651)
(13.6342 -0.0756257 -0.0201406)
(13.656 -0.0667379 -0.0178222)
(13.6763 -0.0589507 -0.0157769)
(13.6938 -0.0519544 -0.0140675)
(13.716 -0.0447494 -0.0118044)
(14.0068 0.198361 0.0471174)
(14.0461 0.565277 0.132246)
(14.1348 0.904564 0.209235)
(14.3227 1.15159 0.26454)
(14.5949 1.17258 0.269693)
(14.803 0.86898 0.191689)
(14.7685 0.403257 0.0866984)
(14.5092 -0.0160029 -0.0128101)
(14.2021 -0.25469 -0.0649647)
(13.9573 -0.364431 -0.0867336)
(13.7858 -0.399919 -0.092531)
(13.6722 -0.397104 -0.0904083)
(13.6008 -0.375827 -0.0847082)
(13.5591 -0.346208 -0.0775278)
(13.5383 -0.313407 -0.0698714)
(13.5323 -0.280247 -0.0622875)
(13.5366 -0.248386 -0.0550963)
(13.5479 -0.21884 -0.0484886)
(13.5637 -0.191835 -0.0425305)
(13.5821 -0.16805 -0.0372641)
(13.6017 -0.147276 -0.0326936)
(13.6215 -0.129173 -0.0287145)
(13.6409 -0.11351 -0.02527)
(13.6596 -0.100019 -0.0223056)
(13.6774 -0.0884199 -0.0197621)
(13.6943 -0.0784416 -0.0175794)
(13.7102 -0.069819 -0.0157073)
(13.7254 -0.0622173 -0.0140482)
(13.7388 -0.0553486 -0.0126604)
(13.7566 -0.0481715 -0.0107877)
(14.0097 0.157151 0.0325005)
(14.0636 0.450062 0.0910473)
(14.1575 0.711153 0.141642)
(14.3087 0.892128 0.175538)
(14.4947 0.912523 0.178552)
(14.6286 0.724013 0.138254)
(14.6236 0.423307 0.0783894)
(14.4865 0.12673 0.019285)
(14.297 -0.0789073 -0.0196635)
(14.1225 -0.201088 -0.0418927)
(13.9829 -0.263977 -0.0527615)
(13.8786 -0.288866 -0.0565794)
(13.8042 -0.29111 -0.0563599)
(13.7531 -0.28044 -0.0539207)
(13.7197 -0.262747 -0.0503038)
(13.6995 -0.241627 -0.0461421)
(13.6892 -0.219325 -0.0418272)
(13.6861 -0.197291 -0.0376067)
(13.6883 -0.176318 -0.0336176)
(13.694 -0.156891 -0.0299558)
(13.7022 -0.139394 -0.0266699)
(13.7118 -0.123792 -0.0237393)
(13.7222 -0.110008 -0.0211497)
(13.7329 -0.097923 -0.018881)
(13.7438 -0.0873827 -0.0169058)
(13.7545 -0.0782132 -0.0151927)
(13.7651 -0.0702303 -0.0137145)
(13.7756 -0.0631689 -0.0124033)
(13.7852 -0.0567786 -0.0113102)
(13.7988 -0.0499663 -0.00980525)
(14.0099 0.120166 0.0222398)
(14.0656 0.351468 0.0629572)
(14.1537 0.558718 0.0978847)
(14.2779 0.701326 0.120868)
(14.4163 0.727923 0.124241)
(14.5164 0.613419 0.102721)
(14.5307 0.412371 0.067709)
(14.4601 0.198255 0.0307559)
(14.344 0.0283076 0.00248664)
(14.2225 -0.0890191 -0.0165739)
(14.1141 -0.161674 -0.0281305)
(14.0252 -0.201186 -0.0342508)
(13.9556 -0.218284 -0.0367856)
(13.903 -0.220904 -0.0370449)
(13.8641 -0.214555 -0.0359045)
(13.8363 -0.202934 -0.0339464)
(13.8172 -0.188498 -0.0315561)
(13.8048 -0.172898 -0.0289901)
(13.7976 -0.157168 -0.0264109)
(13.7943 -0.14198 -0.0239293)
(13.794 -0.127815 -0.0216175)
(13.7957 -0.114846 -0.019499)
(13.7989 -0.103143 -0.0175851)
(13.8031 -0.0927056 -0.0158776)
(13.8081 -0.0834792 -0.0143701)
(13.8136 -0.0753758 -0.0130501)
(13.8195 -0.0682882 -0.0119073)
(13.8258 -0.0620244 -0.0108976)
(13.8319 -0.0563895 -0.0100643)
(13.8415 -0.0502254 -0.00889465)
(14.0085 0.08881 0.0152067)
(14.0594 0.269684 0.0440184)
(14.1378 0.43731 0.0692614)
(14.242 0.555128 0.0862388)
(14.3532 0.587215 0.0902957)
(14.4377 0.51909 0.0788396)
(14.466 0.38315 0.0577459)
(14.436 0.226885 0.0338045)
(14.3677 0.0899534 0.0133588)
(14.2857 -0.014603 -0.00208056)
(14.2046 -0.0869033 -0.0127134)
(14.1321 -0.132349 -0.0194043)
(14.0709 -0.157676 -0.0231842)
(14.0208 -0.168848 -0.0249231)
(13.9809 -0.170495 -0.0252837)
(13.9495 -0.166005 -0.0247454)
(13.9254 -0.15777 -0.0236478)
(13.9072 -0.147465 -0.0222304)
(13.8937 -0.13622 -0.0206564)
(13.884 -0.124803 -0.0190401)
(13.8773 -0.113743 -0.0174619)
(13.8731 -0.10333 -0.0159657)
(13.8706 -0.09373 -0.0145784)
(13.8696 -0.0850232 -0.0133157)
(13.8697 -0.0772307 -0.0121846)
(13.8708 -0.0703345 -0.0111859)
(13.8726 -0.0642969 -0.0103204)
(13.8751 -0.0590001 -0.00956437)
(13.8781 -0.0543289 -0.00895246)
(13.884 -0.0490511 -0.00808116)
(14.0061 0.0631928 0.0104747)
(14.0492 0.202951 0.0314001)
(14.1173 0.3392 0.0504866)
(14.2068 0.438166 0.0638879)
(14.3021 0.473084 0.0684094)
(14.3798 0.434624 0.0625785)
(14.4191 0.342734 0.049591)
(14.416 0.228808 0.0336281)
(14.3808 0.120926 0.0187048)
(14.3284 0.0321306 0.00640712)
(14.2701 -0.0342046 -0.00287298)
(14.2131 -0.0798049 -0.00937861)
(14.1612 -0.108482 -0.0136201)
(14.1158 -0.124397 -0.0161379)
(14.0772 -0.131192 -0.0174035)
(14.0448 -0.131726 -0.0177856)
(14.0182 -0.128148 -0.0175657)
(13.9963 -0.122033 -0.0169539)
(13.9787 -0.114494 -0.0161027)
(13.9645 -0.106309 -0.0151232)
(13.9533 -0.0980226 -0.0140964)
(13.9444 -0.0899788 -0.0130752)
(13.9376 -0.0823935 -0.0120957)
(13.9324 -0.075398 -0.0111819)
(13.9285 -0.0690651 -0.0103497)
(13.9258 -0.0634302 -0.00960868)
(13.9241 -0.0585164 -0.00896748)
(13.9234 -0.0542777 -0.00841911)
(13.9235 -0.0507154 -0.00798999)
(13.9259 -0.0465312 -0.00737947)
(14.0031 0.0428854 0.00731626)
(14.0375 0.148932 0.0230982)
(14.0962 0.258298 0.0382451)
(14.1753 0.340352 0.0494096)
(14.2615 0.374909 0.0541645)
(14.3368 0.355548 0.0515696)
(14.3852 0.294619 0.0434664)
(14.4014 0.212923 0.0325398)
(14.39 0.130314 0.0214606)
(14.3603 0.0581143 0.0116347)
(14.3207 0.000888564 0.0036544)
(14.2775 -0.041019 -0.00240381)
(14.2348 -0.0694626 -0.00673861)
(14.1949 -0.0871356 -0.00965995)
(14.1589 -0.0967006 -0.0114815)
(14.1271 -0.10043 -0.0124756)
(14.0994 -0.10013 -0.0128669)
(14.0755 -0.0971798 -0.0128337)
(14.0551 -0.0925936 -0.012513)
(14.0378 -0.0871009 -0.012009)
(14.0232 -0.0812216 -0.0114008)
(14.0109 -0.0753062 -0.0107448)
(14.0006 -0.0695875 -0.0100818)
(13.992 -0.0642212 -0.00944163)
(13.9849 -0.0593102 -0.0088456)
(13.979 -0.054927 -0.0083096)
(13.9743 -0.0511459 -0.00784681)
(13.9706 -0.0479848 -0.0074646)
(13.9681 -0.0456114 -0.00718098)
(13.9672 -0.0427116 -0.00679564)
(13.9999 0.0272433 0.00516295)
(14.026 0.105228 0.0176981)
(14.0773 0.189777 0.0304071)
(14.1492 0.254906 0.0401767)
(14.2304 0.286111 0.0450544)
(14.3058 0.278829 0.0443989)
(14.362 0.240381 0.0393404)
(14.3927 0.184105 0.0316684)
(14.3994 0.123661 0.023245)
(14.3875 0.0680376 0.0152589)
(14.3634 0.0217557 0.00834465)
(14.3323 -0.0138464 0.00274479)
(14.2982 -0.0393955 -0.0015565)
(14.2639 -0.0564464 -0.00470657)
(14.2311 -0.0668059 -0.00689974)
(14.2006 -0.0721565 -0.00833017)
(14.1728 -0.0739122 -0.00917292)
(14.1479 -0.0731967 -0.00957665)
(14.1257 -0.0708642 -0.00966253)
(14.1062 -0.0675465 -0.00952714)
(14.0891 -0.0637024 -0.00924653)
(14.0741 -0.0596538 -0.00887847)
(14.0611 -0.0556228 -0.00846676)
(14.0497 -0.0517661 -0.0080447)
(14.0398 -0.0481974 -0.00763751)
(14.0313 -0.045009 -0.00726571)
(14.0239 -0.0423153 -0.00694451)
(14.0175 -0.04018 -0.00669356)
(14.0126 -0.0389912 -0.00652014)
(14.0082 -0.0375534 -0.00632823)
(13.9971 0.0154331 0.00354888)
(14.0165 0.0695918 0.014267)
(14.0623 0.129934 0.0256398)
(14.1294 0.177419 0.0346181)
(14.2079 0.202795 0.0396497)
(14.2847 0.202707 0.0402788)
(14.3477 0.180853 0.037219)
(14.3902 0.145149 0.0317061)
(14.4115 0.104365 0.0251033)
(14.4143 0.0649645 0.0184163)
(14.4033 0.0307356 0.0122766)
(14.3829 0.00327057 0.00701277)
(14.3569 -0.0173367 0.00272891)
(14.3281 -0.0318396 -0.000609813)
(14.2987 -0.0413329 -0.00310915)
(14.27 -0.0469403 -0.0049013)
(14.2427 -0.0496647 -0.00612048)
(14.2173 -0.0503362 -0.0068902)
(14.1941 -0.0496066 -0.00731764)
(14.173 -0.04797 -0.00749253)
(14.154 -0.0457927 -0.00748833)
(14.1369 -0.043339 -0.00736352)
(14.1216 -0.0407965 -0.00716403)
(14.1079 -0.038303 -0.00692621)
(14.0957 -0.0359644 -0.00667801)
(14.0847 -0.0338741 -0.00644392)
(14.075 -0.0321693 -0.00623914)
(14.066 -0.0309285 -0.00609389)
(14.0587 -0.0307797 -0.00599793)
(14.0503 -0.030907 -0.00597161)
(13.9962 0.00607725 0.00205687)
(14.0106 0.0399804 0.0123771)
(14.0518 0.0760989 0.02318)
(14.1148 0.105441 0.0318567)
(14.1912 0.123026 0.0372511)
(14.2697 0.126361 0.0389648)
(14.3394 0.116533 0.0373924)
(14.3929 0.0975134 0.0334113)
(14.4274 0.0741303 0.0280652)
(14.4438 0.0503492 0.0222374)
(14.4452 0.0287978 0.0165611)
(14.4352 0.0108322 0.0114291)
(14.4172 -0.00317098 0.00703505)
(14.3943 -0.0134493 0.00343115)
(14.3688 -0.0205419 0.000580534)
(14.3423 -0.025081 -0.0015993)
(14.3161 -0.0276718 -0.00320935)
(14.2908 -0.0288373 -0.00435269)
(14.267 -0.0290002 -0.00512526)
(14.2447 -0.0284883 -0.00561163)
(14.2241 -0.0275478 -0.00588375)
(14.2053 -0.026361 -0.00600131)
(14.188 -0.0250568 -0.00601253)
(14.1722 -0.0237368 -0.00595707)
(14.1579 -0.0224752 -0.00586529)
(14.1447 -0.0213452 -0.00576551)
(14.1326 -0.0204836 -0.00567258)
(14.121 -0.0198951 -0.00562302)
(14.1115 -0.0204352 -0.00558449)
(14.0975 -0.0220479 -0.00570236)
(13.9984 0.000579413 0.000932521)
(14.009 0.0155418 0.0113562)
(14.0438 0.0320398 0.0221804)
(14.1007 0.0470088 0.0312189)
(14.1732 0.0579687 0.0375575)
(14.2525 0.0631782 0.0407365)
(14.329 0.0622236 0.0408368)
(14.3944 0.0561349 0.0384019)
(14.444 0.0467648 0.034225)
(14.4767 0.0359783 0.029095)
(14.4935 0.0252568 0.0236627)
(14.4969 0.0155764 0.0184018)
(14.4899 0.0074349 0.0136111)
(14.4754 0.000971091 0.00944347)
(14.456 -0.00390101 0.00594695)
(14.4336 -0.00738957 0.00310088)
(14.4098 -0.00974729 0.000844999)
(14.3856 -0.0112229 -0.000899648)
(14.3618 -0.0120362 -0.00221682)
(14.3389 -0.0123699 -0.00318703)
(14.3171 -0.0123687 -0.00388288)
(14.2966 -0.0121444 -0.00436771)
(14.2774 -0.0117808 -0.00469479)
(14.2595 -0.0113423 -0.00490937)
(14.2428 -0.0108809 -0.00504726)
(14.2271 -0.0104324 -0.00514225)
(14.2126 -0.0100903 -0.00521112)
(14.1978 -0.00982789 -0.00529988)
(14.1866 -0.0100464 -0.00534465)
(14.1634 -0.01157 -0.00557187)
(13.9144 0.0599802 0.303518)
(13.5038 0.20327 1.02944)
(12.6342 0.222261 2.0492)
(10.7504 0.267148 4.53641)
(1.32115 -0.0269523 -0.78173)
(8.26319 -0.158104 -2.70995)
(9.20305 -0.100439 -1.74461)
(9.9754 -0.069708 -1.20167)
(10.6388 -0.0501169 -0.860606)
(11.1947 -0.0366465 -0.628722)
(11.651 -0.0271579 -0.465954)
(12.0206 -0.0204078 -0.350245)
(12.3181 -0.0155651 -0.267229)
(12.5577 -0.012062 -0.207145)
(12.7972 -0.0181398 -0.164962)
(13.0151 -0.0267027 -0.135292)
(13.1246 -0.0219653 -0.111409)
(13.2154 -0.0181741 -0.0923166)
(13.2925 -0.0151799 -0.0771284)
(13.3583 -0.0128013 -0.0650442)
(13.4146 -0.0108866 -0.0553205)
(13.4633 -0.00932674 -0.0473974)
(13.5054 -0.00804378 -0.0408506)