/*--------------------------------*- C++ -*----------------------------------*\
  =========                 |
  \\      /  F ield         | OpenFOAM: The Open Source CFD Toolbox
   \\    /   O peration     | Website:  https://openfoam.org
    \\  /    A nd           | Version:  10
     \\/     M anipulation  |
\*---------------------------------------------------------------------------*/
FoamFile
{
    format      ascii;
    class       volScalarField;
    location    "300";
    object      k;
}
// * * * * * * * * * * * * * * * * * * * * * * * * * * * * * * * * * * * * * //

dimensions      [0 2 -2 0 0 0 0];

internalField   nonuniform List<scalar> 
27507
(
348.951
348.722
350.109
309.538
25.169
46.8524
63.7806
77.03
86.6989
93.2128
97.284
99.5793
100.456
99.4836
96.7002
93.7946
90.7869
87.7437
84.7103
81.7176
78.7876
75.9373
73.1861
70.5921
68.4699
348.691
347.418
348.323
324.496
31.3209
58.3794
75.7696
86.9566
94.1527
98.6016
101.134
102.321
102.408
101.027
98.0003
94.7499
91.4889
88.2549
85.0744
81.9671
78.9471
76.0257
73.2183
70.58
68.426
348.215
345.458
344.767
335.262
5.07656
65.1198
90.4683
101.913
107.091
109.208
109.683
109.211
108.148
106.554
103.992
100.156
96.3605
92.68
89.1191
85.6821
82.3723
79.1921
76.1435
73.235
70.5164
68.3032
347.643
343.227
338.264
332.034
298.558
29.2506
24.8598
115.156
128.539
131.806
131.255
128.845
125.589
122.03
118.448
114.952
111.468
107.442
102.585
98.1966
94.0371
90.0903
86.3436
82.7854
79.4058
76.1979
73.1618
70.3402
68.0481
347.069
341.119
334.325
324.291
311.071
278.496
230.864
208.806
191.243
177.538
166.336
156.704
148.128
140.378
133.35
126.979
121.189
115.836
110.62
104.775
99.8461
95.2281
90.9013
86.8427
83.0311
79.4466
76.0728
72.9022
69.9703
67.5885
346.558
339.35
331.201
320.676
305.787
289.535
264.164
238.05
218.04
200.532
185.346
172.105
160.456
150.124
140.908
132.653
125.227
118.486
112.274
106.413
100.993
95.9716
91.3116
86.9781
82.9402
79.1701
75.6454
72.352
69.3168
66.8424
346.126
337.883
328.634
317.507
303.49
286.075
266.553
246.244
227.101
209.557
193.722
179.528
166.824
155.442
145.229
136.049
127.777
120.29
113.463
107.172
101.382
96.049
91.1267
86.5749
82.3571
78.4401
74.7963
71.4063
68.2869
65.7231
345.765
336.622
326.387
314.552
300.622
284.464
266.705
248.261
230.204
213.133
197.329
182.875
169.747
157.864
147.124
137.422
128.65
120.704
113.481
106.877
100.828
95.2793
90.1779
85.479
81.1417
77.1292
73.4103
69.961
66.787
64.1413
345.46
335.448
324.176
311.433
297.077
281.179
264.17
246.669
229.382
212.817
197.271
182.882
169.68
157.633
146.681
136.743
127.73
119.552
112.12
105.347
99.1612
93.5014
88.3125
83.5461
79.1589
75.1117
71.3708
67.9088
64.7194
62.0025
345.193
334.217
321.671
307.675
292.424
276.159
259.249
242.148
225.335
209.192
193.973
179.815
166.755
154.782
143.856
133.912
124.874
116.662
109.198
102.402
96.206
90.5473
85.3696
80.6231
76.2635
72.2505
68.5491
65.1294
61.9748
59.2006
344.946
332.72
318.383
302.583
285.917
268.798
251.564
234.529
218.002
202.237
187.406
173.61
160.868
149.169
138.477
128.734
119.869
111.81
104.483
97.8175
91.7465
86.2095
81.151
76.5216
72.2771
68.3768
64.786
61.4723
58.4175
55.6047
344.704
330.56
313.416
294.932
276.235
257.862
240.057
222.958
206.694
191.37
177.062
163.804
151.585
140.383
130.15
120.827
112.346
104.637
97.6314
91.2629
85.4687
80.1911
75.3764
70.9768
66.9495
63.2543
59.859
56.7254
53.8567
51.0347
344.435
326.761
304.765
282.238
260.85
241.01
222.665
205.656
189.882
175.268
161.775
149.36
137.978
127.576
118.094
109.468
101.63
94.5131
88.0528
82.1865
76.8562
72.0081
67.5918
63.5625
59.8805
56.506
53.4143
50.5496
47.9863
45.2075
343.978
318.203
287.121
258.795
234.439
213.541
195.292
179.075
164.481
151.226
139.156
128.153
118.131
109.013
100.727
93.2069
86.3876
80.2071
74.6062
69.5291
64.9239
60.7427
56.9407
53.478
50.3202
47.4265
44.7933
42.312
40.2248
37.5966
341.91
291.592
243.991
209.626
184.2
164.607
148.654
135.159
123.41
112.967
103.592
95.131
87.4804
80.5407
74.2535
68.5638
63.4189
58.7689
54.5663
50.767
47.3292
44.2165
41.3919
38.8251
36.4922
34.3436
32.4342
30.5195
29.1574
26.9423
317.06
174.866
118.163
91.1693
75.6745
65.5795
58.2042
52.3707
47.5017
43.2878
39.5659
36.2413
33.257
30.5794
28.1638
25.9814
24.0094
22.2277
20.6182
19.1632
17.8485
16.6558
15.5815
14.5912
13.7214
12.8677
12.2
11.3869
10.9807
10.01
348.69
347.416
348.306
323.916
30.5855
58.1021
75.685
86.9224
94.1059
98.5221
101.024
102.192
102.275
100.907
97.9147
94.6925
91.4498
88.2279
85.0557
81.9543
78.9386
76.0207
73.2159
70.5797
68.4273
348.448
346.36
346.708
331.037
41.9809
70.9161
86.7254
95.56
100.567
103.259
104.47
104.688
104.069
102.327
99.1062
95.5745
92.1008
88.7023
85.3929
82.1839
79.0834
76.0983
73.2402
70.5619
68.3788
348.009
344.659
343.498
333.225
127.443
18.0178
82.8505
102.353
110.374
113.346
113.879
113.163
111.783
110.03
107.915
105.074
101.08
97.0573
93.2004
89.5001
85.952
82.5536
79.3024
76.1971
73.2432
70.4883
68.2483
347.483
342.633
337.145
331.331
305.466
95.922
67.9353
134.946
139.913
139.363
136.665
132.898
128.691
124.417
120.275
116.335
112.502
108.286
103.306
98.7461
94.449
90.3909
86.5538
82.9223
79.4833
76.2274
73.1522
70.2992
67.9834
346.953
340.725
333.72
327.399
311.561
283.159
241.655
217.672
198.004
182.838
170.513
160.024
150.79
142.519
135.067
128.344
122.256
116.657
111.247
105.311
100.255
95.5333
91.1207
86.9915
83.1219
79.4895
76.0764
72.8737
69.9155
67.5133
346.477
339.084
330.757
320.084
305.591
290.151
265.974
240.551
220.646
203.014
187.595
174.085
162.165
151.577
142.125
133.656
126.037
119.125
112.77
106.793
101.28
96.182
91.4578
87.0705
82.9876
79.1801
75.6244
72.3055
69.2489
66.7573
346.069
337.702
328.333
317.136
303.245
286.183
267.111
247.213
228.28
210.799
194.933
180.653
167.837
156.332
145.995
136.693
128.306
120.714
113.795
107.425
101.569
96.1802
91.2105
86.6186
82.3669
78.4216
74.754
71.3442
68.2081
65.6301
345.726
336.497
326.179
314.296
300.409
284.403
266.859
248.635
230.736
213.75
197.973
183.504
170.334
158.394
147.59
137.819
128.98
120.969
113.686
107.03
100.935
95.3468
90.2114
85.4832
81.1211
77.0876
73.351
69.8869
66.7003
64.0431
345.433
335.361
324.028
311.243
296.895
281.061
264.158
246.778
229.594
213.097
197.586
183.208
169.996
157.926
146.942
136.967
127.916
119.699
112.231
105.423
99.2069
93.5201
88.3075
83.5205
79.1155
75.0532
71.2996
67.827
64.6285
61.9026
345.174
334.154
321.56
307.527
292.264
276.021
259.161
242.126
225.376
209.283
194.096
179.954
166.898
154.919
143.979
134.017
124.959
116.726
109.239
102.423
96.2075
90.5311
85.3374
80.577
76.2052
72.1818
68.4717
65.0447
61.8841
59.1031
344.933
332.674
318.298
302.462
285.773
268.654
251.439
234.438
217.949
202.218
187.412
173.634
160.901
149.205
138.511
128.761
119.887
111.817
104.479
97.8016
91.719
86.1712
81.1027
76.4643
72.2119
68.3047
64.7083
61.3899
58.3316
55.5142
344.695
330.526
313.35
294.83
276.105
257.717
239.914
222.83
206.587
191.286
176.999
163.757
151.551
140.356
130.128
120.806
112.323
104.61
97.6004
91.2265
85.4265
80.143
75.3226
70.9177
66.8856
63.1863
59.7876
56.6513
53.7813
50.9565
344.43
326.737
304.713
282.151
260.731
240.868
222.515
205.509
189.748
175.15
161.675
149.276
137.907
127.516
118.043
109.422
101.587
94.4722
88.012
82.1447
76.8126
71.962
67.5432
63.5112
59.8266
56.4498
53.3565
50.4905
47.9282
45.1477
343.975
318.187
287.079
258.719
234.329
213.405
195.142
178.924
164.338
151.096
139.042
128.055
118.049
108.943
100.669
93.1574
86.3448
80.1691
74.5715
69.4963
64.8918
60.7107
56.9081
53.4444
50.2856
47.3908
44.7577
42.2755
40.193
37.5623
341.909
291.582
243.956
209.559
184.103
164.486
148.519
135.023
123.28
112.85
103.491
95.0449
87.4101
80.4847
74.21
68.5307
63.3943
58.7508
54.5531
50.7573
47.3218
44.2103
41.3864
38.8196
36.4872
34.3385
32.4332
30.5173
29.1732
26.9431
317.06
174.86
118.143
91.1345
75.6254
65.5205
58.1399
52.3063
47.4413
43.2339
39.5201
36.2038
33.2268
30.5557
28.146
25.9687
24.0008
22.2225
20.6156
19.1626
17.8494
16.6576
15.5841
14.594
13.7248
12.871
12.2047
11.3931
10.9894
10.021
348.214
345.454
344.749
335.137
4.70114
64.4328
90.2251
101.822
107.031
109.105
109.502
108.952
107.833
106.221
103.709
99.9697
96.2304
92.5884
89.0544
85.6366
82.3411
79.1717
76.1319
73.2304
70.5174
68.3083
348.009
344.657
343.496
333.343
95.8334
20.3095
82.917
102.291
110.334
113.312
113.815
113.049
111.619
109.829
107.702
104.902
100.974
96.9815
93.1462
89.4614
85.9246
82.5347
79.2902
76.1903
73.2407
70.4894
68.2521
347.645
343.272
340.983
332.721
292.321
104.55
122.534
127.716
128.274
126.596
123.863
120.693
117.416
114.176
110.908
107.224
102.643
98.2455
94.0862
90.1419
86.3973
82.8406
79.4621
76.2545
73.2185
70.3976
68.1077
347.197
341.6
335.277
329.484
310.448
262.043
195.102
177.996
170.454
162.409
155.082
148.247
141.725
135.529
129.725
124.361
119.427
114.794
109.965
104.531
99.6805
95.1444
90.8902
86.8923
83.1294
79.5837
76.2409
73.0954
70.185
67.8248
346.744
340.008
332.423
322.187
311.361
287.65
257.826
231.05
209.686
192.57
178.478
166.509
156.07
146.812
138.535
131.108
124.419
118.312
112.508
106.22
100.944
96.0395
91.4748
87.2194
83.2454
79.5267
76.0429
72.7822
69.7761
67.3355
346.328
338.596
329.926
319.186
304.968
286.595
265.618
244.424
224.741
207.028
191.313
177.408
165.064
154.058
144.211
135.376
127.422
120.213
113.605
107.429
101.753
96.5189
91.6799
87.196
83.0322
79.1574
75.546
72.1809
69.0857
66.5617
345.965
337.367
327.773
316.477
302.727
286.232
267.806
248.699
230.163
212.833
196.95
182.55
169.558
157.85
147.301
137.791
129.204
121.427
114.345
107.836
101.862
96.3735
91.319
86.6552
82.3428
78.3465
74.6364
71.1911
68.0249
65.4202
345.654
336.263
325.787
313.812
299.975
284.212
267.014
249.182
231.568
214.744
199.028
184.547
171.315
159.281
148.366
138.478
129.521
121.397
114.008
107.258
101.083
95.4237
90.2278
85.4477
81.0413
76.9703
73.2023
69.7119
66.5027
63.824
345.383
335.193
323.742
310.873
296.519
280.786
264.056
246.889
229.885
213.514
198.074
183.719
170.496
158.389
147.352
137.315
128.197
119.913
112.379
105.512
99.2422
93.5078
88.2535
83.4302
78.9941
74.9052
71.1293
67.6381
64.4236
61.6808
345.139
334.032
321.343
307.23
291.932
275.716
258.936
242.012
225.372
209.368
194.241
180.133
167.088
155.101
144.141
134.15
125.057
116.787
109.263
102.411
96.162
90.455
85.2341
80.4495
76.0568
72.0155
68.2903
64.8509
61.6798
58.8862
344.909
332.584
318.129
302.216
285.474
268.341
251.151
234.204
217.779
202.108
187.35
173.605
160.893
149.204
138.509
128.751
119.863
111.776
104.419
97.7226
91.6212
86.0556
80.9706
76.3173
72.0517
68.1333
64.5275
61.2014
58.1372
55.3111
344.679
330.46
313.216
294.622
275.832
257.407
239.597
222.532
206.324
191.063
176.814
163.603
151.422
140.244
130.025
120.708
112.225
104.509
97.4929
91.1115
85.3031
80.0109
75.182
70.769
66.7296
63.0239
59.62
56.4795
53.6073
50.7772
344.42
326.69
304.606
281.971
260.481
240.567
222.188
205.183
189.439
174.868
161.425
149.056
137.715
127.346
117.89
109.282
101.457
94.347
87.8895
82.0227
76.6895
71.8366
67.4147
63.3794
59.6916
56.3118
53.2162
50.3484
47.7866
45.0036
343.969
318.154
286.993
258.563
234.101
213.121
194.825
178.597
164.021
150.801
138.776
127.82
117.842
108.762
100.51
93.0171
86.2192
80.0547
74.4652
69.3956
64.7946
60.6152
56.8132
53.3491
50.1897
47.2939
44.6605
42.1781
40.0976
37.4668
341.907
291.562
243.888
209.428
183.907
164.24
148.242
134.737
123.002
112.593
103.261
94.8438
87.2382
80.3403
74.0899
68.4313
63.3119
58.6821
54.4949
50.707
47.277
44.1692
41.3476
38.7819
36.4503
34.3015
32.3969
30.4832
29.136
26.9184
317.06
174.85
118.108
91.0705
75.5331
65.4073
58.0139
52.1776
47.3176
43.1207
39.4206
36.1192
33.1555
30.4968
28.0983
25.9307
23.971
22.1995
20.598
19.1492
17.8392
16.6496
15.5778
14.5885
13.7203
12.8668
12.1992
11.3991
10.9409
10.064
347.642
343.222
338.242
332.009
298.841
22.2698
115.191
128.49
131.737
131.204
128.786
125.474
121.826
118.146
114.57
111.05
107.086
102.346
98.0206
93.9078
89.9962
86.2762
82.7392
79.3767
76.1827
73.1581
70.3463
68.0616
347.482
342.63
337.135
331.335
305.683
99.6594
58.2437
134.879
139.881
139.326
136.631
132.853
128.602
124.259
120.04
116.037
112.173
108.016
103.132
98.6158
94.3521
90.3197
86.5026
82.8872
79.4614
76.2162
73.1502
70.305
67.9951
347.197
341.599
335.275
329.495
310.501
262.279
195.708
177.949
170.381
162.383
155.067
148.233
141.704
135.489
129.655
124.256
119.291
114.642
109.84
104.45
99.6183
95.0971
90.8549
86.8666
83.1119
79.5729
76.2358
73.0952
70.1891
67.8322
346.845
340.362
333.06
322.978
311.619
285.605
250.779
221.34
200.705
184.937
172.267
161.578
152.21
143.831
136.282
129.475
123.33
117.696
112.024
105.942
100.748
95.9217
91.4252
87.2265
83.2985
79.6179
76.1651
72.9299
69.9457
67.5258
346.48
339.12
330.869
320.414
305.929
290.662
266.5
242.341
221.035
202.872
187.397
174.048
162.362
152.014
142.785
134.521
127.095
120.357
114.063
107.25
101.71
96.5802
91.8261
87.4125
83.3067
79.4791
75.9055
72.5713
69.5037
67.0113
346.136
337.969
328.862
317.938
304.159
287.059
267.754
247.881
228.839
211.283
195.399
181.144
168.371
156.914
146.623
137.363
129.013
121.447
114.539
108.122
102.247
96.844
91.8614
87.2562
82.9908
79.0313
75.3495
71.9263
68.7818
66.2141
345.828
336.923
327.027
315.568
301.97
286.048
268.415
250.093
232.075
214.995
199.162
184.671
171.501
159.572
148.783
139.028
130.204
122.204
114.922
108.243
102.125
96.5126
91.3529
86.5996
82.2114
78.1514
74.3883
70.8989
67.6947
65.0539
345.556
335.943
325.244
313.122
299.31
283.796
266.999
249.606
232.34
215.738
200.125
185.654
172.366
160.233
149.194
139.169
130.071
121.81
114.294
107.431
101.156
95.4114
90.1411
85.2972
80.8364
76.7196
72.9132
69.3909
66.154
63.4461
345.313
334.958
323.332
310.326
295.932
280.287
263.749
246.821
230.037
213.83
198.488
184.176
170.952
158.811
147.717
137.61
128.415
120.052
112.442
105.504
99.1698
93.3786
88.0744
83.2079
78.7347
74.6144
70.8123
67.2993
64.0659
61.3005
345.089
333.856
321.024
306.78
291.404
275.19
258.486
241.683
225.173
209.28
194.235
180.175
167.153
155.167
144.189
134.169
125.04
116.729
109.164
102.271
95.9841
90.2426
84.9907
80.179
75.7629
71.7016
67.96
64.5071
61.3247
58.5143
344.874
332.451
317.874
301.835
284.994
267.813
250.63
233.732
217.378
201.779
187.084
173.386
160.706
149.036
138.347
128.585
119.688
111.586
104.212
97.4964
91.3763
85.7928
80.6912
76.0231
71.7445
67.815
64.2002
60.867
57.7978
54.9601
344.655
330.36
313.01
294.294
275.393
256.89
239.046
221.987
205.812
190.597
176.395
163.228
151.084
139.935
129.737
120.432
111.957
104.243
97.2267
90.8419
85.0286
79.7306
74.8955
70.4766
66.4319
62.7215
59.3141
56.1711
53.2986
50.4615
344.404
326.617
304.439
281.687
260.08
240.072
221.636
204.612
188.879
174.338
160.934
148.607
137.305
126.971
117.545
108.961
101.154
94.0589
87.6116
81.7517
76.4227
71.5722
67.1514
63.1163
59.4283
56.0481
52.9526
50.085
47.5262
44.7397
343.961
318.105
286.861
258.318
233.74
212.663
194.302
178.046
163.47
150.273
138.284
127.368
117.432
108.392
100.174
92.7117
85.9392
79.7955
74.2227
69.166
64.5747
60.4024
56.6055
53.1451
49.9882
47.0943
44.4629
41.9815
39.9056
37.2737
341.905
291.531
243.785
209.229
183.607
163.856
147.801
134.272
122.539
112.15
102.851
94.4733
86.9071
80.0491
73.835
68.2082
63.1158
58.5084
54.3394
50.5659
47.147
44.0474
41.2319
38.6704
36.3419
34.1949
32.2925
30.3785
29.037
26.8161
317.06
174.837
118.057
90.9778
75.3976
65.2378
57.8218
51.9766
47.1194
42.9338
39.2505
35.9683
33.0239
30.382
27.9994
25.8461
23.899
22.1379
20.5451
19.1032
17.7989
16.6135
15.5449
14.558
13.6913
12.8392
12.1719
11.3732
10.9137
10.0387
347.069
341.125
334.395
328.077
311.39
278.887
230.024
208.712
191.226
177.517
166.305
156.67
148.081
140.292
133.2
126.753
120.894
115.501
110.301
104.542
99.6621
95.0864
90.7953
86.7666
82.9798
79.4159
76.0599
72.905
69.987
67.6162
346.953
340.726
333.719
327.463
311.646
283.241
241.414
217.46
197.972
182.815
170.488
159.996
150.749
142.448
134.945
128.159
122.015
116.382
110.982
105.124
100.106
95.4171
91.0333
86.9285
83.0793
79.4642
76.0663
72.8771
69.9308
67.5383
346.744
340.008
332.422
322.19
311.384
287.666
257.841
231.05
209.67
192.554
178.462
166.49
156.043
146.767
138.46
130.997
124.273
118.144
112.343
106.103
100.849
95.9643
91.4176
87.178
83.2174
79.5105
76.0371
72.7859
69.7885
67.355
346.48
339.12
330.869
320.415
305.933
290.666
266.503
242.343
221.031
202.866
187.39
174.039
162.35
151.995
142.755
134.478
127.038
120.29
113.996
107.201
101.669
96.547
91.8006
87.3938
83.2942
79.4721
75.9037
72.5742
69.511
67.0224
346.199
338.188
329.258
318.475
304.755
291.716
271.182
249.742
229.505
211.273
195.129
180.865
168.216
156.944
146.858
137.807
129.665
122.296
115.53
108.122
102.316
96.9552
92.0057
87.4277
83.1846
79.2432
75.5762
72.1651
69.0322
66.4801
345.926
337.28
327.687
316.492
302.994
286.861
268.926
250.275
232.004
214.782
198.903
184.436
171.333
159.492
148.8
139.143
130.413
122.499
115.294
108.639
102.562
96.9865
91.8562
87.126
82.7556
78.7086
74.9546
71.4718
68.2758
65.6575
345.673
336.412
326.155
314.46
300.927
285.454
268.524
250.919
233.444
216.681
200.968
186.45
173.153
161.039
150.033
140.049
130.996
122.777
115.297
108.45
102.188
96.4516
91.1853
86.3411
81.8762
77.7521
73.9359
70.4027
67.1601
64.4775
345.442
335.56
324.578
312.24
298.381
283.043
266.595
249.609
232.694
216.339
200.861
186.434
173.12
160.911
149.764
139.615
130.386
121.994
114.355
107.383
101.012
95.1827
89.8395
84.9332
80.4196
76.2585
72.4157
68.8635
65.5998
62.8586
345.23
334.666
322.807
309.597
295.093
279.476
263.086
246.372
229.802
213.768
198.544
184.295
171.091
158.934
147.799
137.634
128.372
119.939
112.26
105.256
98.8634
93.0199
87.67
82.7641
78.2576
74.1096
70.2848
66.7536
63.5041
60.713
345.028
333.631
320.6
306.159
290.638
274.365
257.691
240.982
224.59
208.811
193.857
179.862
166.879
154.908
143.929
133.894
124.741
116.4
108.803
101.878
95.5614
89.7925
84.5162
79.6833
75.2493
71.1735
67.4203
63.9587
60.7692
57.9404
344.829
332.276
317.525
301.296
284.288
266.996
249.772
232.892
216.592
201.062
186.436
172.797
160.164
148.528
137.86
128.111
119.218
111.115
103.735
97.0115
90.8826
85.2903
80.1805
75.5051
71.2206
67.2866
63.6689
60.3343
57.2653
54.4159
344.624
330.225
312.721
293.822
274.741
256.098
238.17
221.081
204.92
189.744
175.593
162.479
150.385
139.28
129.12
119.845
111.392
103.696
96.6923
90.3166
84.5097
79.2164
74.3848
69.9688
65.9267
62.2191
58.8149
55.6755
52.809
49.966
344.384
326.516
304.203
281.275
259.485
239.322
220.78
203.701
187.957
173.438
160.073
147.796
136.547
126.264
116.883
108.341
100.569
93.5025
87.0797
81.2398
75.9273
71.0902
66.6805
62.6548
58.9749
55.6019
52.5136
49.652
47.1031
44.3151
343.95
318.035
286.672
257.966
233.214
211.983
193.51
177.193
162.597
149.414
137.46
126.593
116.71
107.723
99.5562
92.1399
85.4085
79.3004
73.7579
68.7267
64.1566
60.002
56.2198
52.7715
49.6251
46.7398
44.1171
41.6416
39.578
36.9458
341.901
291.49
243.643
208.953
183.184
163.305
147.157
133.577
121.829
111.455
102.19
93.8561
86.3381
79.5317
73.3669
67.785
62.7324
58.1594
54.0197
50.2706
46.8719
43.7889
40.9868
38.4361
36.1168
33.9767
32.0819
30.1704
28.8438
26.6168
317.059
174.821
117.992
90.8573
75.2177
65.008
57.5552
51.6906
46.8293
42.6521
38.9855
35.7246
32.8034
30.1825
27.8207
25.6867
23.7569
22.0111
20.4313
19.0004
17.7052
16.5273
15.4648
14.4826
13.6204
12.7702
12.1091
11.2991
10.9001
9.93368
346.558
339.352
331.205
320.566
305.814
289.566
264.14
238.052
218.032
200.512
185.316
172.068
160.407
150.052
140.8
132.503
125.036
118.267
112.054
106.216
100.828
95.8409
91.2119
86.9064
82.8936
79.1462
75.642
72.3675
69.3498
66.8904
346.477
339.084
330.755
320.064
305.6
290.17
265.961
240.558
220.638
202.996
187.569
174.052
162.122
151.515
142.034
133.53
125.877
118.942
112.583
106.625
101.139
96.0691
91.3712
87.008
82.9469
79.1594
75.622
72.3199
69.2792
66.8012
346.328
338.595
329.925
319.182
304.972
286.599
265.622
244.425
224.734
207.013
191.293
177.382
165.03
154.012
144.145
135.287
127.309
120.084
113.474
107.309
101.651
96.436
91.6157
87.1494
83.002
79.1425
75.5451
72.1934
69.1108
66.598
346.137
337.969
328.861
317.937
304.16
287.061
267.755
247.88
228.834
211.274
195.386
181.127
168.349
156.885
146.583
137.311
128.948
121.373
114.463
108.052
102.186
96.794
91.8223
87.2278
82.9726
79.0228
75.3503
71.9359
68.8
66.24
345.926
337.28
327.687
316.492
302.994
286.861
268.926
250.274
232.001
214.777
198.896
184.427
171.322
159.479
148.782
139.121
130.386
122.469
115.263
108.61
102.537
96.9651
91.8394
87.1138
82.748
78.7055
74.9559
71.4773
68.2855
65.6711
345.715
336.574
326.464
314.91
301.463
285.981
268.987
251.296
233.738
216.917
201.172
186.642
173.348
161.246
150.256
140.29
131.255
123.055
115.593
108.752
102.498
96.769
91.5088
86.6691
82.2074
78.085
74.2695
70.7365
67.4957
64.8246
345.512
335.863
325.189
313.169
299.557
284.343
267.91
250.871
233.875
217.438
201.893
187.415
174.065
161.833
150.672
140.515
131.28
122.884
115.24
108.257
101.874
96.033
90.677
85.7569
81.2288
77.0526
73.1943
69.627
66.3532
63.6273
345.32
335.128
323.799
311.155
297.134
281.842
265.615
248.937
232.323
216.204
200.88
186.53
173.23
160.989
149.777
139.543
130.219
121.728
113.994
106.937
100.492
94.5971
89.1978
84.2441
79.6912
75.4983
71.6303
68.0584
64.7763
62.0009
345.136
334.322
322.164
308.66
293.944
278.247
261.908
245.333
228.934
213.058
197.958
183.792
170.634
158.493
147.348
137.158
127.859
119.383
111.659
104.613
98.1823
92.3053
86.9266
81.9967
77.4708
73.3078
69.4722
65.9336
62.6769
59.8605
344.957
333.354
320.059
305.333
289.567
273.139
256.411
239.73
223.416
207.734
192.873
178.955
166.032
154.103
143.149
133.127
123.976
115.632
108.027
101.093
94.7665
88.989
83.7055
78.8673
74.43
70.3529
66.6005
63.1415
59.9547
57.109
344.776
332.053
317.065
300.559
283.287
265.792
248.447
231.524
215.241
199.762
185.202
171.631
159.063
147.484
136.864
127.153
118.29
110.21
102.849
96.1398
90.0229
84.4409
79.3405
74.6741
70.3985
66.4738
62.8657
59.5413
56.4832
53.625
344.585
330.047
312.329
293.162
273.809
254.935
236.846
219.671
203.485
188.331
174.227
161.175
149.147
138.108
128.008
118.788
110.384
102.73
95.7623
89.4178
83.638
78.3684
73.5581
69.1612
65.1367
61.4456
58.0574
54.9329
52.0836
49.2391
344.358
326.38
303.875
280.693
258.632
238.229
219.507
202.319
186.528
172.013
158.684
146.464
135.282
125.069
115.758
107.28
99.5668
92.5538
86.178
80.3796
75.1034
70.2983
65.9168
61.9161
58.2588
54.9063
51.8372
48.9926
46.4645
43.6813
343.935
317.941
286.41
257.471
232.465
211.005
192.356
175.928
161.279
148.094
136.172
125.358
115.541
106.625
98.5295
91.1811
84.5124
78.4612
72.9695
67.9831
63.4523
59.332
55.5798
52.1579
49.0349
46.1702
43.5671
41.107
39.0646
36.4414
341.896
291.435
243.453
208.577
182.604
162.54
146.248
132.578
120.788
110.414
101.179
92.8934
85.4328
78.6911
72.5908
67.0704
62.0743
57.5522
53.4574
49.7475
46.3828
43.3291
40.5523
38.0232
35.7229
33.5985
31.7197
29.8183
28.5088
26.2914
317.059
174.801
117.913
90.706
74.9865
64.7059
57.1972
51.2977
46.4209
42.2455
38.5927
35.3536
32.4582
29.8628
27.527
25.4183
23.512
21.7875
20.2266
18.8123
17.5314
16.3657
15.3139
14.3405
13.4862
12.6424
11.9872
11.182
10.7875
9.82549
346.126
337.882
328.627
317.464
303.484
286.073
266.548
246.238
227.088
209.533
193.69
179.487
166.772
155.374
145.138
135.93
127.632
120.127
113.296
107.016
101.247
95.9388
91.0427
86.5167
82.3236
78.4301
74.8086
71.4401
68.3416
65.797
346.069
337.701
328.327
317.118
303.24
286.181
267.108
247.207
228.268
210.777
194.903
180.615
167.789
156.27
145.913
136.588
128.179
120.571
113.648
107.287
101.449
96.0813
91.1347
86.5658
82.3364
78.4122
74.7651
71.3749
68.2581
65.698
345.965
337.366
327.77
316.471
302.725
286.23
267.804
248.694
230.152
212.815
196.926
182.519
169.518
157.799
147.235
137.708
129.105
121.316
114.23
107.727
101.767
96.2946
91.2582
86.6126
82.3181
78.339
74.6457
71.2167
68.0667
65.4773
345.828
336.922
327.025
315.566
301.969
286.046
268.412
250.088
232.066
214.981
199.143
184.647
171.471
159.534
148.735
138.969
130.135
122.128
114.843
108.168
102.059
96.4574
91.31
86.5694
82.194
78.1465
74.3957
70.9186
67.7267
65.0977
345.673
336.412
326.154
314.459
300.926
285.453
268.521
250.915
233.438
216.672
200.955
186.433
173.133
161.014
150.003
140.014
130.955
122.732
115.251
108.406
102.149
96.4187
91.1595
86.323
81.8659
77.7496
73.9413
70.4159
67.1813
64.5066
345.512
335.862
325.189
313.168
299.556
284.342
267.909
250.868
233.872
217.434
201.887
187.407
174.055
161.821
150.659
140.499
131.262
122.865
115.22
108.238
101.857
96.0187
90.6657
85.749
81.2244
77.0518
73.1971
69.6335
66.3635
63.6415
345.351
335.28
324.119
311.656
297.789
282.599
266.42
249.75
233.118
216.969
201.612
187.229
173.9
161.632
150.397
140.142
130.799
122.291
114.542
107.469
101.008
95.1
89.6875
84.7211
80.1559
75.9513
72.072
68.4896
65.2001
62.4329
345.193
334.648
322.887
309.817
295.481
280.06
263.883
247.374
230.972
215.052
199.884
185.639
172.401
160.182
148.963
138.702
129.338
120.801
113.019
105.92
99.4374
93.5116
88.0868
83.1133
78.546
74.3438
70.4711
66.898
63.6128
60.8059
345.036
333.922
321.375
307.456
292.385
276.462
260.039
243.496
227.195
211.443
196.463
182.398
169.319
157.234
146.126
135.956
126.667
118.192
110.465
103.416
96.9817
91.1028
85.7243
80.7967
76.2754
72.1195
68.293
64.7652
61.5172
58.6789
344.877
333.018
319.367
304.236
288.089
271.371
254.471
237.727
221.432
205.815
191.041
177.214
164.377
152.524
141.635
131.666
122.56
114.252
106.677
99.7684
93.4653
87.7094
82.4467
77.6287
73.2115
69.1546
65.4227
61.9842
58.8165
55.9585
344.713
331.771
316.456
299.553
281.884
264.059
246.484
229.437
213.115
197.66
183.162
169.672
157.191
145.7
135.163
125.527
116.732
108.714
101.406
94.7453
88.6719
83.1295
78.0656
73.4331
69.1894
65.295
61.716
58.4192
55.3891
52.528
344.537
329.815
311.796
292.243
272.488
253.261
234.908
217.571
201.312
186.154
172.093
159.112
147.173
136.229
126.224
117.094
108.774
101.197
94.2996
88.0185
82.2961
77.0785
72.3155
67.9619
63.9774
60.3232
56.9697
53.8772
51.0621
48.2239
344.324
326.198
303.418
279.868
257.414
236.655
217.659
200.293
184.41
169.876
156.579
144.426
133.331
123.216
114.005
105.624
98.0042
91.0773
84.7804
79.0537
73.8422
69.0956
64.767
60.8142
57.2005
53.8878
50.8559
48.0439
45.553
42.7844
343.915
317.812
286.04
256.769
231.401
209.61
190.702
174.1
159.357
146.15
134.255
123.504
113.77
104.949
96.9514
89.7
83.1238
77.1587
71.746
66.8312
62.365
58.3026
54.6024
51.227
48.1462
45.3191
42.7516
40.3207
38.3136
35.7112
341.889
291.36
243.191
208.057
181.799
161.473
144.974
131.166
119.301
108.909
99.6976
91.4655
84.0746
77.4142
71.3985
65.9612
61.0439
56.5947
52.5662
48.916
45.6045
42.598
39.8632
37.3711
35.1042
33.0084
31.1579
29.2777
27.994
25.7993
317.058
174.778
117.815
90.5128
74.6856
64.3059
56.7166
50.762
45.8552
41.6724
38.0293
34.8119
31.9455
29.381
27.078
25.0021
23.1273
21.432
19.898
18.5077
17.2483
16.1016
15.0668
14.1079
13.267
12.4344
11.7894
10.9945
10.6058
9.65487
345.765
336.62
326.379
314.531
300.611
284.455
266.695
248.248
230.185
213.105
197.292
182.829
169.69
157.795
147.04
137.32
128.532
120.576
113.35
106.754
100.722
95.1932
90.1149
85.4399
81.1267
77.1381
73.4429
70.0172
66.8672
64.2457
345.726
336.496
326.173
314.283
300.401
284.396
266.85
248.623
230.718
213.723
197.938
183.461
170.281
158.33
147.511
137.725
128.872
120.852
113.566
106.917
100.837
95.2667
90.1523
85.446
81.106
77.0946
73.3799
69.9377
66.7735
64.139
345.653
336.262
325.783
313.805
299.969
284.206
267.007
249.171
231.551
214.721
198.998
184.51
171.269
159.225
148.299
138.398
129.43
121.298
113.908
107.164
100.999
95.3555
90.1768
85.415
81.0272
76.9749
73.2256
69.754
66.5641
63.9053
345.556
335.942
325.241
313.118
299.306
283.791
266.993
249.597
232.327
215.72
200.1
185.624
172.329
160.188
149.14
139.106
130.001
121.734
114.217
107.358
101.092
95.3583
90.1009
85.2709
80.8245
76.7222
72.9305
69.4232
66.2017
63.51
345.442
335.559
324.576
312.238
298.378
283.039
266.59
249.601
232.684
216.325
200.843
186.411
173.092
160.877
149.725
139.57
130.337
121.942
114.302
107.332
100.967
95.1451
89.8107
84.914
80.4104
76.2596
72.4273
68.8859
65.6335
62.9043
345.32
335.128
323.798
311.153
297.132
281.839
265.611
248.932
232.316
216.195
200.868
186.515
173.212
160.967
149.752
139.515
130.188
121.696
113.962
106.907
100.464
94.5739
89.1798
84.2318
79.6849
75.4984
71.6369
68.0717
64.7967
62.0291
345.192
334.648
322.887
309.816
295.48
280.059
263.881
247.372
230.969
215.047
199.878
185.632
172.392
160.172
148.951
138.689
129.323
120.786
113.005
105.906
99.4248
93.5009
88.0784
83.1073
78.5427
74.3434
70.4736
66.9036
63.6218
60.8185
345.062
334.101
321.786
308.12
293.273
277.515
261.194
244.697
228.403
212.63
197.612
183.501
170.372
158.238
147.08
136.863
127.529
119.013
111.247
104.162
97.6941
91.7841
86.3764
81.4218
76.8752
72.6956
68.8472
65.2991
62.0341
59.2011
344.928
333.446
320.381
305.877
290.264
273.93
257.262
240.623
224.338
208.668
193.802
179.859
166.898
154.92
143.906
133.817
124.597
116.182
108.508
101.506
95.1161
89.2791
83.9406
79.0519
74.5687
70.4501
66.6606
63.169
59.9528
57.0988
344.788
332.602
318.464
302.755
286.045
268.866
251.649
234.735
218.388
202.803
188.113
174.396
161.678
149.946
139.173
129.312
120.303
112.085
104.591
97.7561
91.5209
85.8279
80.6239
75.8611
71.496
67.4886
63.804
60.4106
57.2853
54.4225
344.64
331.408
315.633
298.161
279.916
261.596
243.659
226.391
209.971
194.512
180.075
166.683
154.323
142.962
132.555
123.046
114.37
106.461
99.2552
92.688
86.7003
81.2368
76.2457
71.6807
67.4998
63.6639
60.1401
56.8948
53.9158
51.0611
344.478
329.505
311.053
290.943
270.609
250.872
232.132
214.544
198.16
182.975
168.959
156.069
144.251
133.442
123.576
114.584
106.396
98.9437
92.1612
85.9864
80.3616
75.2334
70.5524
66.2742
62.3591
58.7692
55.4755
52.4375
49.6797
46.8592
344.281
325.945
302.766
278.682
255.664
234.402
215.017
197.393
181.373
166.8
153.539
141.472
130.496
120.516
111.448
103.209
95.7267
88.9296
82.7536
77.1384
72.0293
67.3761
63.1329
59.2579
55.7157
52.4681
49.4971
46.7386
44.3068
41.5665
343.889
317.627
285.502
255.748
229.866
207.613
188.344
171.5
156.624
143.377
131.513