/*--------------------------------*- C++ -*----------------------------------*\
  =========                 |
  \\      /  F ield         | OpenFOAM: The Open Source CFD Toolbox
   \\    /   O peration     | Website:  https://openfoam.org
    \\  /    A nd           | Version:  10
     \\/     M anipulation  |
\*---------------------------------------------------------------------------*/
FoamFile
{
    format      ascii;
    class       volScalarField;
    location    "300";
    object      nut;
}
// * * * * * * * * * * * * * * * * * * * * * * * * * * * * * * * * * * * * * //

dimensions      [0 2 -1 0 0 0 0];

internalField   nonuniform List<scalar> 
27507
(
624.521
315.407
131.583
40.0043
8.03812
15.0764
22.7141
31.6608
41.3607
51.1467
60.5181
69.1231
76.5972
83.4069
89.5251
92.6555
95.0874
96.9374
98.2748
99.1671
99.6791
99.8715
99.8103
99.6042
99.9956
625.906
381.001
159.379
53.5412
7.31925
16.1136
25.8492
35.9345
45.9509
55.5704
64.5381
72.6372
79.5737
86.2155
92.2542
94.8642
96.8863
98.3809
99.413
100.046
100.339
100.347
100.131
99.796
100.079
627.518
510.99
230.953
87.1253
0.226335
10.9142
23.7321
36.0725
47.2355
57.2062
66.0878
73.9578
80.8063
86.4695
92.057
97.1343
98.8525
100.105
100.94
101.41
101.568
101.46
101.131
100.632
100.059
100.143
630.019
542.275
345.62
166.946
57.8536
0.408604
0.418327
15.1874
29.7546
43.2535
55.1374
65.2311
73.6989
80.8093
86.7876
91.7469
95.6406
99.5861
103.144
103.736
104.009
104.002
103.756
103.304
102.681
101.916
101.049
100.164
99.9852
633.12
555.859
448.72
308.788
172.907
72.1327
40.162
52.0818
61.1718
70.4195
78.8303
86.0169
91.894
96.5726
100.247
103.1
105.244
106.694
107.39
109.101
108.515
107.752
106.85
105.836
104.731
103.552
102.315
101.046
99.8174
99.3465
635.76
567.77
480.153
374.801
273.09
182.728
135.219
134.063
127.89
125.135
123.774
122.963
122.271
121.513
120.631
119.619
118.474
117.174
115.727
114.011
112.271
110.52
108.77
107.03
105.305
103.599
101.914
100.264
98.7001
97.937
637.081
574.52
499.298
415.331
333.289
266.333
220.052
189.625
172.294
160.656
152.396
146.099
140.935
136.5
132.57
129.011
125.731
122.652
119.729
116.891
114.176
111.591
109.129
106.779
104.533
102.381
100.317
98.3446
96.4902
95.463
636.4
573.991
504.302
432.361
363.955
305.408
260.053
226.592
203.042
185.809
172.609
161.95
153.33
146.036
139.736
134.204
129.278
124.846
120.806
117.075
113.616
110.401
107.404
104.602
101.974
99.5004
97.1647
94.9637
92.892
91.6496
632.899
564.098
493.712
427.293
367.588
316.492
274.897
242.085
216.771
197.03
181.368
168.549
157.737
148.735
141.001
134.263
128.325
123.04
118.294
113.995
110.074
106.481
103.173
100.115
97.2759
94.6312
92.1555
89.8443
87.6498
86.2565
625.107
541.629
465.384
400.932
347.327
302.953
266.558
236.984
213.12
193.762
177.916
164.816
153.474
143.901
135.722
128.582
122.296
116.72
111.739
107.258
103.203
99.5121
96.1367
93.0363
90.175
87.5254
85.0549
82.7671
80.559
79.0892
609.947
501.355
416.387
353.481
305.987
268.811
238.833
214.265
193.97
177.056
162.907
150.952
140.474
131.535
123.809
117.029
111.039
105.715
100.958
96.6842
92.8238
89.3204
86.1249
83.1989
80.5048
78.02
75.7019
73.5774
71.4739
70.0087
580.264
435.358
344.325
286.767
247.616
218.861
196.278
177.826
162.402
149.234
138.049
128.211
119.69
112.25
105.706
99.9134
94.7612
90.158
86.0286
82.3093
78.9452
75.8911
73.1043
70.5553
68.2058
66.0478
64.0195
62.194
60.3176
58.9425
518.334
334.902
250.714
206.063
178.508
159.405
144.622
132.584
122.44
113.46
105.676
98.7883
92.6633
87.2062
82.3295
77.9592
74.0323
70.4953
67.3015
64.4103
61.7845
59.3946
57.2065
55.2063
53.351
51.6612
50.0405
48.6299
47.1062
45.91
383.652
202.105
147.167
122.176
107.617
97.9408
90.1837
83.9126
78.468
73.5568
69.1286
65.114
61.4688
58.1454
55.1171
52.3603
49.8516
47.5687
45.4895
43.5945
41.8622
40.28
38.8207
37.4905
36.2365
35.1174
33.9981
33.0701
32.0299
31.0999
151.873
75.0681
58.1215
50.5021
45.8624
42.7671
40.2063
37.9803
35.9676
34.1017
32.365
30.7474
29.2485
27.8295
26.5057
25.2804
24.1511
23.1126
22.158
21.2817
20.4737
19.7334
19.0416
18.4157
17.8082
17.2818
16.7308
16.2627
15.8262
15.23
12.4958
9.27997
7.62844
6.70068
6.10477
5.68301
5.35391
5.07854
4.8367
4.61719
4.41425
4.22474
4.04707
3.88075
3.72435
3.57718
3.4388
3.3088
3.1868
3.07236
2.96517
2.86444
2.77058
2.68116
2.60008
2.51793
2.45212
2.36782
2.33156
2.21677
625.896
381.155
159.536
54.148
6.98129
15.9214
25.7797
35.9236
45.9359
55.497
64.3715
72.3706
79.2333
85.8548
91.967
94.6588
96.7374
98.2713
99.3313
99.9843
100.292
100.312
100.106
99.7787
100.069
626.946
443.705
188.72
64.8702
7.88185
18.4473
29.5561
40.3035
50.4056
59.733
68.2045
75.7234
82.0748
88.5321
94.5797
96.7858
98.4556
99.6424
100.408
100.813
100.912
100.756
100.402
99.9512
100.138
628.518
536.556
261.318
104.701
1.98429
1.08728
14.5138
28.0973
40.6152
51.6996
61.3967
69.8626
77.2314
83.5486
88.6997
94.1228
99.209
100.563
101.497
102.055
102.287
102.24
101.958
101.481
100.856
100.178
100.174
631.006
546.532
398.037
190.05
79.4102
1.75189
2.5208
21.1063
35.5543
48.6036
59.9596
69.534
77.4961
84.1068
89.5935
94.0799
97.54
101.348
104.886
105.171
105.174
104.932
104.482
103.855
103.082
102.19
101.214
100.237
99.9805
633.928
559.41
458.633
335.585
193.299
89.5871
53.0618
63.7422
70.0738
77.7619
84.9937
91.2222
96.3056
100.312
103.403
105.739
107.423
108.472
108.842
110.506
109.663
108.677
107.583
106.402
105.153
103.85
102.507
101.148
99.8423
99.3056
636.326
570.174
485.977
385.986
287.698
197.019
148.024
146.162
137.247
132.682
129.951
128.077
126.526
125.061
123.586
122.069
120.49
118.821
117.065
115.098
113.149
111.219
109.316
107.444
105.605
103.8
102.031
100.308
98.6814
97.8643
637.435
575.986
502.613
421.359
341.741
276.161
229.551
198.041
179.162
166.428
157.032
149.944
144.127
139.153
134.774
130.835
127.231
123.877
120.724
117.693
114.817
112.095
109.514
107.062
104.727
102.5
100.37
98.3413
96.438
95.3677
636.599
574.795
506.057
435.458
368.413
310.75
265.531
231.748
207.526
189.613
175.845
164.62
155.561
147.898
141.287
135.491
130.342
125.716
121.51
117.638
114.059
110.742
107.658
104.78
102.086
99.5558
97.1711
94.9279
92.8193
91.5436
632.993
564.476
494.53
428.739
369.702
319.125
277.751
244.917
219.375
199.331
183.353
170.277
159.185
149.953
142.024
135.116
129.031
123.618
118.762
114.367
110.363
106.698
103.328
100.215
97.3298
94.6443
92.1334
89.7919
87.571
86.1528
625.139
541.755
465.665
401.456
348.163
304.071
267.858
238.351
214.448
194.992
179.018
165.788
154.334
144.628
136.341
129.105
122.732
117.079
112.03
107.488
103.379
99.6412
96.2242
93.0871
90.1936
87.516
85.0213
82.7129
80.4872
78.9997
609.946
501.354
416.405
353.563
306.18
269.135
239.273
214.785
194.526
177.609
163.431
151.437
140.916
131.924
124.148
117.321
111.286
105.922
101.127
96.818
92.9257
89.3934
86.1718
83.2224
80.5075
78.0045
75.6707
73.5331
71.4194
69.9425
580.252
435.311
344.25
286.686
247.559
218.853
196.328
177.935
162.552
149.413
138.242
128.404
119.88
112.428
105.868
100.059
94.8887
90.2676
86.1204
82.3837
79.0029
75.9328
73.1311
70.5684
68.2065
66.0375
64
62.167
60.2868
58.9048
518.322
334.856
250.636
205.961
178.398
159.306
144.545
132.542
122.421
113.47
105.713
98.837
92.7215
87.2689
82.3933
78.0215
74.0913
70.5494
67.3498
64.452
61.819
59.4218
57.2264
55.2191
53.3574
51.6618
50.0369
48.6227
47.1014
45.9006
383.646
202.08
147.12
122.11
107.537
97.8594
90.1048
83.8476
78.4175
73.5223
69.1103
65.108
61.4733
58.1581
55.1357
52.383
49.8768
47.5949
45.5156
43.6197
41.8856
40.3012
38.8393
37.5063
36.25
35.1286
34.0093
33.0807
32.0505
31.1114
151.872
75.0615
58.1065
50.4794
45.8316
42.7324
40.1707
37.9474
35.9392
34.0788
32.3481
30.7356
29.2427
27.8292
26.51
25.2885
24.1621
23.1258
22.1728
21.2974
20.4899
19.7497
19.0579
18.4317
17.8249
17.2989
16.753
16.2867
15.8736
15.2459
12.4958
9.27982
7.6278
6.6994
6.10279
5.68045
5.35096
5.07542
4.83363
4.61432
4.41169
4.22255
4.04522
3.87925
3.72317
3.5763
3.43817
3.3084
3.18659
3.07229
2.96522
2.86457
2.77078
2.68137
2.60035
2.51818
2.45244
2.36839
2.33197
2.21764
627.504
511.125
231.321
88.9293
0.217397
10.5961
23.5555
36.0107
47.2366
57.1643
65.8803
73.4938
80.0631
85.5109
91.1224
96.4702
98.3676
99.7473
100.672
101.208
101.415
101.345
101.046
100.571
100.018
100.121
628.512
536.545
261.587
104.988
1.12854
1.07454
14.5943
28.0671
40.5961
51.7031
61.366
69.7208
76.9197
83.0515
88.0578
93.529
98.8195
100.277
101.284
101.894
102.165
102.147
101.887
101.429
100.819
100.154
100.161
630.425
545.178
342.389
156.824
45.9701
12.3824
27.1041
40.7125
52.7435
63.0389
71.7136
78.9855
85.0691
90.0941
94.0422
98.5785
102.97
103.653
103.994
104.036
103.825
103.399
102.794
102.044
101.187
100.313
100.145
632.766
554.186
443.45
268.495
141.279
41.4724
18.6507
25.679
38.8478
51.3424
62.5555
72.2209
80.2649
86.8196
92.1084
96.3459
99.6694
102.094
105.139
108.036
107.749
107.248
106.569
105.741
104.79
103.74
102.612
101.436
100.287
99.8874
635.31
565.274
472.353
355.691
233.462
142.753
100.597
89.8634
90.4965
94.4186
98.8041
102.776
106.014
108.478
110.247
111.429
112.102
112.284
111.955
113.029
111.708
110.309
108.856
107.366
105.85
104.319
102.781
101.255
99.8052
99.1462
637.285
574.177
495.137
402.952
312.474
239.054
193.361
168.547
155.183
146.609
141.404
137.537
134.367
131.568
128.978
126.517
124.134
121.784
119.458
117.029
114.692
112.432
110.246
108.128
106.078
104.092
102.165
100.308
98.5655
97.648
638.028
578.43
508.068
431.191
356.03
291.953
244.937
212.931
191.71
176.864
165.547
156.987
149.954
143.98
138.766
134.123
129.919
126.06
122.482
119.096
115.922
112.945
110.145
107.505
105.008
102.64
100.39
98.2572
96.2628
95.1123
636.919
576.109
508.947
440.602
375.957
319.728
274.845
240.796
215.54
196.455
181.611
169.492
159.583
151.243
144.062
137.782
132.221
127.239
122.728
118.598
114.799
111.295
108.049
105.032
102.218
99.5831
97.1084
94.7877
92.6106
91.2728
633.132
565.05
495.82
431.086
373.226
323.56
282.625
249.832
223.945
203.396
186.86
173.338
161.762
152.096
143.818
136.604
130.25
124.604
119.546
114.976
110.821
107.025
103.541
100.33
97.3591
94.5991
92.0236
89.6266
87.3563
85.8916
625.171
541.896
466.034
402.224
349.467
305.879
270.009
240.655
216.714
197.102
180.915
167.463
155.814
145.876
137.396
129.986
123.459
117.667
112.494
107.843
103.636
99.8131
96.3207
93.1173
90.1655
87.4369
84.8978
82.5514
80.2922
78.7711
609.927
501.289
416.342
353.588
306.388
269.571
239.924
215.594
195.41
178.504
164.283
152.231
141.64
132.558
124.697
117.787
111.675
106.238
101.375
97.0042
93.0552
89.4713
86.203
83.2117
80.4593
77.9233
75.5605
73.3984
71.2638
69.7642
580.218
435.188
344.055
286.463
247.366
218.74
196.32
178.036
162.733
149.654
138.509
128.682
120.161
112.69
106.106
100.268
95.0686
90.4169
86.2391
82.4722
79.0622
75.9642
73.1363
70.5492
68.165
65.9761
63.9211
62.0735
60.1823
58.7864
518.294
334.755
250.465
205.737
178.15
159.069
144.346
132.405
122.326
113.429
105.724
98.8744
92.7794
87.338
82.467
78.0946
74.16
70.6109
67.4018
64.493
61.848
59.4382
57.2302
55.2105
53.337
51.6307
49.9966
48.5753
47.0492
45.8429
383.634
202.03
147.026
121.977
107.373
97.6872
89.9336
83.6991
78.2943
73.4285
69.0466
65.0679
61.4533
58.154
55.1436
52.3992
49.8983
47.6191
45.5403
43.643
41.9062
40.318
38.8516
37.5138
36.2528
35.127
34.0039
33.075
32.0379
31.11
151.871
75.0493
58.078
50.4356
45.7714
42.6632
40.0981
37.8783
35.8774
34.0265
32.3065
30.7033
29.2208
27.8173
26.5066
25.292
24.171
23.1388
22.1885
21.3149
20.5083
19.7683
19.0762
18.4493
17.8418
17.3152
16.7681
16.3086
15.8625
15.2996
12.4958
9.27957
7.62664
6.69705
6.09906
5.67554
5.34516
5.06916
4.82732
4.60827
4.40613
4.21761
4.04088
3.8755
3.72
3.57366
3.43602
3.30665
3.18519
3.07118
2.96432
2.86382
2.77015
2.68079
2.59981
2.51774
2.45133
2.37083
2.31693
2.23205
630
542.153
347.744
166.34
55.8067
0.179378
15.0535
29.6382
43.1703
55.1183
65.2413
73.6267
80.509
86.1419
90.7158
94.2942
98.3122
102.265
103.068
103.499
103.611
103.455
103.074
102.508
101.79
100.962
100.111
99.9638
630.991
546.446
398.812
191.402
79.4869
1.7271
1.75371
21.0554
35.4949
48.559
59.9503
69.5386
77.4302
83.8568
89.0667
93.2442
96.4501
100.357
104.239
104.675
104.792
104.637
104.254
103.68
102.95
102.094
101.149
100.199
99.9675
632.759
554.151
443.385
268.673
141.458
40.9647
18.6077
25.5793
38.7487
51.2871
62.5309
72.2152
80.2618
86.7806
91.982
96.0889
99.2653
101.567
104.67
107.736
107.513
107.064
106.425
105.628
104.704
103.675
102.566
101.405
100.271
99.8848
634.871
563.2
466.468
343.424
213.318
122.276
70.0953
63.8427
69.4833
77.0765
84.4363
90.875
96.173
100.349
103.537
105.895
107.542
108.52
110.301
111.997
110.94
109.768
108.509
107.182
105.804
104.39
102.952
101.512
100.137
99.5442
636.928
572.158
488.876
389.026
290.911
197.075
148.717
127.865
120.471
118.655
118.685
119.207
119.66
119.826
119.663
119.196
118.455
117.442
116.149
116.15
114.196
112.246
110.318
108.42
106.554
104.722
102.927
101.182
99.5422
98.7196
638.374
578.769
505.767
422.95
341.073
273.02
225.522
195.863
177.507
165.178
156.412
149.878
144.536
139.947
135.867
132.152
128.709
125.466
122.397
119.361
116.514
113.818
111.257
108.818
106.49
104.265
102.134
100.101
98.2046
97.1525
638.667
581.121
514.211
442.457
372.56
311.877
264.994
231.263
207.377
189.952
176.6
165.967
157.373
150.091
143.781
138.212
133.228
128.71
124.577
120.728
117.164
113.854
110.768
107.882
105.173
102.622
100.215
97.9469
95.8327
94.5748
637.227
577.433
512.013
446.277
384.511
330.4
286.206
251.748
225.345
204.907
188.761
175.596
164.579
155.373
147.46
140.556
134.459
129.015
124.111
119.647
115.565
111.818
108.363
105.166
102.196
99.4274
96.8365
94.4158
92.149
90.7277
633.223
565.485
496.971
433.428
376.995
328.53
288.251
255.568
229.346
208.241
191.076
176.96
164.875
154.64
145.921
138.318
131.625
125.683
120.367
115.574
111.227
107.265
103.637
100.3
97.2192
94.3643
91.7063
89.2383
86.9038
85.376
625.14
541.839
466.126
402.722
350.579
307.638
272.245
243.134
219.208
199.457
183.046
169.335
157.473
147.26
138.546
130.923
124.204
118.24
112.914
108.126
103.799
99.8692
96.2826
92.9961
89.9712
87.1785
84.5835
82.1891
79.8861
78.3191
609.848
501.034
415.992
353.284
306.272
269.734
240.366
216.26
196.207
179.351
165.109
152.998
142.346
133.172
125.214
118.209
112.006
106.483
101.54
97.0943
93.0768
89.4304
86.1053
83.0627
80.2643
77.6875
75.2886
73.0957
70.9337
69.4017
580.139
434.923
343.641
285.968
246.878
218.337
196.047
177.907
162.719
149.737
138.636
128.844
120.343
112.862
106.258
100.394
95.164
90.4796
86.268
82.4671
79.0235
75.8932
73.0344
70.4184
68.0073
65.7942
63.7174
61.8514
59.9451
58.5275
518.241
334.576
250.166
205.344
177.702
158.62
143.934
132.071
122.047
113.227
105.595
98.7881
92.7288
87.3104
82.4526
78.0861
74.1513
70.5976
67.3804
64.4609
61.8034
59.3799
57.1576
55.1236
53.2362
51.517
49.8709
48.4395
46.9074
45.6874
383.615
201.951
146.878
121.766
107.11
97.4011
89.6406
83.4297
78.0554
73.2284
68.8869
64.942
61.3561
58.0811
55.0899
52.3596
49.8683
47.595
45.5188
43.6216
41.8827
40.2909
38.8197
37.4765
36.2096
35.0782
33.9498
33.0159
31.979
31.0412
151.869
75.0315
58.036
50.3702
45.6801
42.5558
39.9825
37.7643
35.7709
33.9316
32.2251
30.6349
29.1639
27.7748
26.4763
25.2716
24.1583
23.1318
22.1856
21.3146
20.5094
19.7698
19.0773
18.4495
17.8406
17.3126
16.7634
16.3024
15.8607
15.285
12.4958
9.27921
7.625
6.69364
6.09359
5.66819
5.3363
5.05939
4.8172
4.59827
4.39661
4.20878
4.03285
3.86819
3.71344
3.56782
3.43082
3.30203
3.18106
3.06745
2.96091
2.86065
2.76714
2.67789
2.59696
2.51492
2.44843
2.36804
2.31362
2.22911
633.119
555.922
449.509
320.747
172.072
70.5356
39.1222
51.4849
60.8646
70.2426
78.7305
85.9795
91.8762
96.4896
99.9915
102.58
104.418
105.602
106.258
108.261
107.833
107.207
106.419
105.5
104.473
103.36
102.181
100.964
99.7804
99.3516
633.916
559.345
458.239
334.78
193.2
88.8755
52.7275
62.9831
69.7796
77.5992
84.9048
91.1857
96.284
100.236
103.185
105.303
106.734
107.563
107.898
109.834
109.113
108.235
107.231
106.126
104.941
103.693
102.399
101.083
99.8159
99.3153
635.3
565.225
472.201
355.509
233.396
142.56
100.42
89.616
90.3041
94.2972
98.736
102.743
105.991
108.421
110.106
111.158
111.679
111.727
111.37
112.619
111.366
110.029
108.631
107.188
105.714
104.219
102.714
101.218
99.7947
99.161
636.924
572.137
488.823
388.953
290.849
196.998
148.606
127.754
120.384
118.595
118.648
119.186
119.644
119.798
119.605
119.091
118.292
117.228
115.92
115.987
114.055
112.128
110.223
108.344
106.496
104.681
102.901
101.17
99.5431
98.7331
638.397
578.532
504.285
419.013
334.703
253.104
200.646
171.267
155.791
147.153
141.892
138.179
135.218
132.596
130.125
127.724
125.357
122.992
120.61
119.19
116.525
113.961
111.507
109.157
106.905
104.744
102.668
100.683
98.8317
97.824
639.279
582.734
515.278
441.063
367.94
304.925
257.2
223.975
201.143
184.973
172.67
163.131
155.368
148.779
143.036
137.929
133.317
129.096
125.208
121.507
118.099
114.922
111.949
109.157
106.526
104.041
101.688
99.4643
97.3979
96.1935
639.11
583.154
519.273
452.271
387.564
330.526
284.5
249.485
223.294
203.434
187.948
175.356
165.008
156.311
148.811
142.241
136.41
131.178
126.443
122.094
118.107
114.435
111.039
107.886
104.948
102.202
99.6257
97.213
94.968
93.5886
637.34
578.104
514.057
450.677
391.726
339.914
296.76
262.158
234.846
213.2
195.803
181.593
169.504
159.36
150.68
143.114
136.446
130.515
125.193
120.375
115.992
111.987
108.31
104.923
101.788
98.8778
96.1647
93.639
91.2756
89.7602
633.13
565.311
497.172
434.615
379.566
332.405
292.954
260.553
234.159
212.621
194.908
180.228
167.676
156.883
147.716
139.718
132.678
126.432
120.852
115.829
111.284
107.149
103.372
99.9059
96.7127
93.7603
91.0179
88.4776
86.0751
84.4764
624.951
541.262
465.416
402.248
350.652
308.383
273.566
244.814
221.018
201.229
184.671
170.75
158.714
148.262
139.331
131.506
124.603
118.473
112.997
108.075
103.629
99.5935
95.9137
92.545
89.4478
86.5918
83.9413
81.4998
79.152
77.5328
609.645
500.383
415.042
352.248
305.359
269.09
240.04
216.217
196.364
179.629
165.425
153.304
142.629
133.402
125.372
118.291
112.012
106.414
101.4
96.8875
92.8074
89.1031
85.7251
82.6345
79.7928
77.1773
74.7441
72.5223
70.3331
68.7639
579.977
434.404
342.843
284.997
245.852
217.37
195.212
177.239
162.2
149.361
138.334
128.617
120.168
112.706
106.105
100.235
94.9897
90.2854
86.0503
82.2237
78.7535
75.5964
72.7114
70.0704
67.6356
65.4008
63.3042
61.4213
59.5013
58.0576
518.147
334.272
249.674
204.698
176.954
157.839
143.176
131.391
121.43
112.713
105.161
98.4235
92.4211
87.045
82.2175
77.8712
73.9486
70.4005
67.1836
64.2603
61.5959
59.1635
56.9307
54.8858
52.987
51.2568
49.6006
48.1593
46.6241
45.3846
383.583
201.833
146.662
121.455
106.716
96.9619
89.1783
82.9828
77.6374
72.8552
68.5598
64.6584
61.1105
57.8696
54.9067
52.1987
49.7242
47.4628
45.3944
43.5015
41.764
40.1715
38.6978
37.3511
36.0798
34.9437
33.8116
32.8698
31.8431
30.8817
151.867
75.008
57.9798
50.2809
45.5534
42.4031
39.8138
37.592
35.6033
33.7751
32.0828
30.508
29.0498
27.6783
26.3952
25.2033
24.1003
23.0818
22.1416
21.2748
20.4722
19.7339
19.0418
18.4138
17.804
17.2744
16.7261
16.2548
15.8527
15.2148
12.4958
9.27878
7.62291
6.6892
6.08631
5.65819
5.32398
5.04545
4.80234
4.58316
4.38174
4.1945
4.01936
3.85546
3.70155
3.55678
3.42059
3.29253
3.17221
3.05914
2.95305
2.85315
2.75994
2.67087
2.59016
2.50797
2.44245
2.35804
2.32221
2.20688
635.759
567.789
480.298
374.644
272.262
181.761
134.449
133.585
127.573
124.92
123.639
122.88
122.205
121.416
120.448
119.299
117.993
116.547
115.038
113.362
111.706
110.048
108.389
106.732
105.081
103.441
101.816
100.223
98.7123
98.001
636.317
570.131
485.804
385.275
287.203
196.417
147.488
145.841
136.972
132.493
129.83
128
126.464
124.974
123.428
121.8
120.089
118.3
116.491
114.555
112.673
110.82
108.993
107.19
105.414
103.667
101.95
100.277
98.698
97.9269
637.275
574.133
495.008
402.67
312.216
238.786
193.109
168.32
154.991
146.469
141.309
137.472
134.312
131.498
128.863
126.33
123.86
121.43
119.066
116.655
114.361
112.152
110.016
107.948
105.944
104
102.113
100.294
98.5878
97.7061
638.368
578.742
505.699
422.829
340.947
272.877
225.376
195.73
177.396
165.09
156.35
149.832
144.496
139.9
135.797
132.046
128.56
125.276
122.185
119.157
116.331
113.661
111.127
108.716
106.416
104.217
102.11
100.102
98.2288
97.2003
639.277
582.723
515.253
441.021
367.892
304.868
257.14
223.92
201.095
184.935
172.639
163.107
155.347
148.756
143.005
137.886
133.26
129.025
125.129
121.432
118.03
114.863
111.9
109.118
106.499
104.025
101.683
99.4706
97.4154
96.2224
639.645
584.766
521.224
453.633
387.817
329.762
283.154
248.035
222.012
202.45
187.272
174.945
164.886
156.405
149.081
142.651
136.931
131.785
127.115
122.81
118.863
115.228
111.865
108.739
105.825
103.097
100.536
98.1363
95.9084
94.5523
639.071
583.501
521.435
458.005
397.656
344.093
299.539
264.121
236.45
214.729
197.391
183.274
171.306
161.316
152.726
145.233
138.621
132.73
127.435
122.627
118.247
114.241
110.56
107.163
104.017
101.092
98.3636
95.8208
93.454
91.9545
637.025
577.316
513.712
451.95
395.332
345.708
303.876
269.599
241.878
219.444
201.125
186.016
173.17
162.166
152.815
144.666
137.495
131.13
125.437
120.306
115.657
111.424
107.553
103.997
100.718
97.684
94.865
92.2494
89.7991
88.1914
632.668
563.907
495.425
433.342
379.393
333.491
295.028
263.16
236.888
215.195
197.17
182.099
169.234
158.023
148.495
140.179
132.857
126.362
120.563
115.351
110.641
106.365
102.464
98.8905
95.6047
92.5727
89.7615
87.1635
84.703
83.0354
624.458
539.701
463.198
399.925
348.694
307.047
272.873
244.627
221.143
201.499
184.958
170.967
158.862
148.285
139.216
131.259
124.23
117.983
112.398
107.379
102.845
98.731
94.9817
91.5515
88.4003
85.4973
82.8058
80.3305
77.9472
76.2779
609.213
499.015
413.023
349.922
303.037
266.994
238.28
214.808
195.25
178.744
164.683
152.641
142.023
132.827
124.787
117.685
111.376
105.745
100.695
96.145
92.0285
88.2895
84.8788
81.7579
78.8886
76.2487
73.7932
71.5539
69.3459
67.741
579.666
433.442
341.398
283.237
243.949
215.477
193.44
175.655
160.804
148.164
137.26
127.682
119.329
111.94
105.389
99.5503
94.3251
89.6308
85.3985
81.5693
78.0925
74.9264
72.0307
69.3783
66.932
64.6864
62.5791
60.6882
58.761
57.2924
517.979
333.763
248.876
203.662
175.749
156.552
141.886
130.174
120.279
111.688
104.236
97.5968
91.6788
86.3737
81.6031
77.3012
73.4125
69.8892
66.6897
63.7778
61.1199
58.6902
56.4575
54.4107
52.5085
50.7748
49.1143
47.6691
46.1349
44.8777
383.532
201.657
146.346
121.002
106.141
96.3068
88.4761
82.2798
76.9567
72.221
67.977
64.1288
60.6302
57.4353
54.5127
51.8386
49.3917
47.1521
45.1003
43.2197
41.4906
39.9037
38.433
37.0879
35.8164
34.6797
33.5467
32.6014
31.582
30.6065
151.864
74.9773
57.9058
50.1617
45.3817
42.1919
39.5753
37.341
35.3512
33.5315
31.8526
30.2943
28.8509
27.4994
26.2349
25.0591
23.9697
22.9623
22.0309
21.1708
20.3731
19.6385
18.9485
18.322
17.7127
17.1831
16.6355
16.1606
15.7676
15.1202
12.4958
9.27826
7.62036
6.68363
6.07695
5.64503
5.3074
5.02624
4.78136
4.56126
4.35961
4.17265
3.99815
3.83498
3.68196
3.53814
3.4029
3.27575
3.15625
3.04392
2.93848
2.83913
2.74639
2.65767
2.57731
2.4953
2.43008
2.34561
2.31041
2.19444
637.076
574.507
499.272
415.132
332.813
265.817
219.593
189.242
172.014
160.439
152.246
145.99
140.842
136.395
132.421
128.79
125.421
122.261
119.293
116.46
113.785
111.256
108.856
106.571
104.388
102.299
100.295
98.3808
96.5854
95.6175
637.428
575.951
502.508
421.053
341.377
275.773
229.202
197.741
178.921
166.237
156.896
149.842
144.04
139.056
134.64
130.641
126.963
123.54
120.348
117.321
114.478
111.803
109.276
106.881
104.603
102.43
100.355
98.3787
96.5288
95.5125
638.02
578.394
507.974
430.995
355.799
291.702
244.695
212.714
191.527
176.72
165.434
156.9
149.878
143.897
138.658
133.972
129.717
125.81
122.203
118.82
115.668
112.726
109.967
107.37
104.917
102.593
100.386
98.2958
96.3451
95.2391
638.661
581.095
514.15
442.348
372.428
311.728
264.844
231.123
207.255
189.852
176.516
165.9
157.312
150.027
143.702
138.11
133.096
128.551
124.401
120.553
117.002
113.714
110.655
107.797
105.118
102.598
100.221
97.9843
95.9021
94.677
639.107
583.14
519.242
452.218
387.497
330.449
284.42
249.408
223.224
203.375
187.897
175.31
164.967
156.267
148.761
142.18
136.337
131.093
126.35
122.002
118.022
114.361
110.98
107.843
104.923
102.195
99.6375
97.2438
95.0188
93.6602
639.069
583.496
521.424
457.987
397.632
344.064
299.508
264.091
236.422
214.703
197.368
183.252
171.285
161.294
152.702
145.206
138.591
132.696
127.4
122.592
118.216
114.214
110.539
107.149
104.01
101.093
98.3728
95.8385
93.4809
91.991
638.191
580.979
518.845
457.372
400.248
349.799
307.176
272.299
244.174
221.483
203.003
187.785
174.866
163.817
154.419
146.233
139.03
132.635
126.914
121.754
117.076
112.817
108.921
105.342
102.042
98.9871
96.1492
93.5153
91.0562
89.4526
635.968
574.044
509.42
448.21
393.275
345.634
305.373
271.964
244.483
221.874
203.159
187.552
174.309
162.765
152.955
144.421
136.91
130.249
124.302
118.955
114.122
109.733
105.729
102.061
98.6872
95.5731
92.6871
90.017
87.5067
85.8211
631.565
560.406
490.462
428.136
374.899
330.169
292.858
261.858
236.115
214.671
196.702
181.559
168.62
157.253
147.537
139.069
131.6
124.97
119.049
113.73
108.928
104.572
100.602
96.9709
93.6357
90.5625
87.7169
85.0927
82.5983
80.8743
623.435
536.453
458.478
394.632
343.552
302.493
269.058
241.511
218.584
199.344
183.069
169.232
157.227
146.714
137.652
129.687
122.639
116.365
110.751
105.703
101.141
97.0012
93.2286
89.7781
86.6093
83.6921
80.9884
78.5064
76.1086
74.3998
608.376
496.41
409.227
345.522
298.507
262.667
234.342
211.322
192.192
176.064
162.303
150.462
140.039
130.999
123.051
116.018
109.76
104.165
99.1389
94.6054
90.4996
86.7672
83.3606
80.2422
77.3744
74.7362
72.2816
70.0467
67.8372
66.2051
579.089
431.711
338.873
280.216
240.683
212.181
190.27
172.709
158.105
145.743
135.034
125.68
117.5
110.26
103.825
98.0801
92.9289
88.2929
84.1061
80.3122
76.8628
73.7176
70.8382
68.1986
65.7621
63.5253
61.4242
59.5418
57.6208
56.1337
517.679
332.896
247.569
202.006
173.843
154.515
139.819
128.177
118.357
109.918
102.598
96.0971
90.3033
85.1086
80.4326
76.2103
72.3875
68.9185
65.7629
62.8862
60.2562
57.8488
55.6333
53.6005
51.709
49.9848
48.3309
46.8929
45.3685
44.099
383.447
201.383
145.87
120.331
105.294
95.3382
87.4314
81.2146
75.906
71.2183
67.033
63.2499
59.8152
56.6821
53.816
51.1917
48.7875
46.5839
44.5618
42.7054
40.9958
39.4245
37.9659
36.6308
35.3666
34.2365
33.1082
32.1662
31.1582
30.1732
151.858
74.9355
57.8052
49.9986
45.1457
41.8986
39.2399
36.9819
34.9833
33.1679
31.5011
29.9599
28.5339
27.2052
25.9629
24.8074
23.7358
22.7437
21.8251
20.9756
20.1864
19.4587
18.774
18.1521
17.5459
17.0191
16.474
15.9998
15.6129
14.9638
12.4958
9.27765
7.61719
6.67651
6.06475
5.62755
5.28505
4.99993
4.75213
4.53022
4.32767
4.14056
3.96644
3.80391
3.6518
3.50904
3.37493
3.2489
3.13047
3.01915
2.91463
2.81608
2.72409
2.63598
2.55623
2.47464
2.40991
2.32575
2.29106
2.17495
636.394
573.968
504.245
432.208
363.677
305.082
259.737
226.312
202.813
185.625
172.456
161.829
153.222
145.926
139.609
134.046
129.083
124.614
120.552
116.823
113.387
110.211
107.262
104.513
101.94
99.5227
97.2448
95.1032
93.0945
91.9181
636.592
574.766
505.983
435.292
368.178
310.481
265.269
231.51
207.323
189.447
175.705
164.506
155.459
147.794
141.168
135.346
130.165
125.507
121.283
117.413
113.855
110.573
107.531
104.701
102.057
99.5782
97.2464
95.0576
93.0069
91.7921
636.913
576.081
508.881
440.474
375.788
319.534
274.65
240.613
215.379
196.319
181.496
169.389
159.492
151.15
143.959
137.659
132.075
127.07
122.547
118.419
114.637
111.16
107.949
104.971
102.198
99.6063
97.1758
94.9007
92.7724
91.4862
637.222
577.411
511.965
446.194
384.401
330.273
286.074
251.621
225.229
204.804
188.67
175.513
164.502
155.296
147.375
140.46
134.348
128.891
123.981
119.519
115.45
111.723
108.294
105.126
102.187
99.4505
96.8934
94.5078
92.2789
90.8979
637.336
578.089
514.028
450.628
391.662
339.838
296.679
262.078
234.77
213.13
195.738
181.532
169.445
159.3
150.617
143.044
136.369
130.432
125.108
120.293
115.919
111.927
108.268
104.9
101.786
98.8978
96.208
93.7068
91.37
89.8832
637.023
577.308
513.696
451.926
395.3
345.67
303.834
269.556
241.835
219.402
201.085
185.977
173.131
162.126
152.773
144.622
137.448
131.081
125.389
120.261
115.617
111.392
107.53
103.985
100.719
97.6976
94.8925
92.2915
89.8574
88.2673
635.967
574.041
509.414
448.201
393.263
345.62
305.356
271.947
244.465
221.857
203.141
187.534
174.29
162.746
152.935
144.4
136.888
130.227
124.28
118.935
114.105
109.719
105.719
102.056
98.6873
95.5789
92.6988
90.0351
87.532
85.8544
633.691
566.847
499.237
437.415
383.613
337.884
299.524
267.595
241.09
219.041
200.596
185.068
171.854
160.231
150.294
141.659
134.046
127.291
121.26
115.844
110.954
106.519
102.479
98.7837
95.3903
92.2637
89.37
86.7002
84.1734
82.4362
629.381
553.499
480.548
417.197
364.4
320.892
285.016
255.317
230.605
209.916
192.476
177.689
164.985
153.797
144.185
135.783
128.358
121.758
115.858
110.556
105.768
101.426
97.4701
93.8533
90.5336
87.4773
84.6485
82.0459
79.5559
77.7983
621.493
530.392
449.797
384.878
333.837
293.463
260.992
234.437
212.4
193.9
178.212
164.825
153.15
142.948
134.098
126.297
119.379
113.209
107.68
102.701
98.1983
94.1095
90.3816
86.9711
83.8387
80.9557
78.2827
75.8344
73.455
71.7256
606.818
491.683
402.538
337.921
290.724
255.165
227.374
204.991
186.494
170.952
157.698
146.233
136.195
127.454
119.746
112.909
106.811
101.348
96.4319
91.9903
87.9619
84.2958
80.9462
77.8778
75.054
72.4561
70.0363
67.8382
65.6543
64.0102
578.02
428.618
334.541
275.194
235.365
206.853
185.13
167.882
153.629
141.656
131.247
122.237
114.338
107.343
101.116
95.5458
90.5423
86.0308
81.9487
78.2432
74.8684
71.787
68.962
66.3698
63.9742
61.7747
59.7048
57.8547
55.9607
54.467
517.126
331.377
245.389
199.347
170.862
151.371
136.645
125.094
115.377
107.137
99.9991
93.691
88.076
83.0444
78.5133
74.4176
70.7042
67.3289
64.2532
61.4445
58.8721
56.5139
54.3402
52.3439
50.4831
48.7871
47.1564
45.7414
44.24
42.9689
383.294
200.927
145.116
119.301
104.025
93.9047
85.8944
79.6435
74.3471
69.7151
65.6021
61.9024
58.552
55.5021
52.7139
50.1605
47.8191