/*--------------------------------*- C++ -*----------------------------------*\
  =========                 |
  \\      /  F ield         | OpenFOAM: The Open Source CFD Toolbox
   \\    /   O peration     | Website:  https://openfoam.org
    \\  /    A nd           | Version:  10
     \\/     M anipulation  |
\*---------------------------------------------------------------------------*/
FoamFile
{
    format      ascii;
    class       volScalarField;
    location    "300";
    object      omega;
}
// * * * * * * * * * * * * * * * * * * * * * * * * * * * * * * * * * * * * * //

dimensions      [0 0 -1 0 0 0 0];

internalField   nonuniform List<scalar> 
27507
(
0.55875
0.69415
1.21391
7.73763
3.13121
3.10767
2.80798
2.43298
2.09617
1.82246
1.60752
1.44061
1.31149
1.19275
1.08015
1.01229
0.954773
0.905159
0.861974
0.82404
0.790412
0.76035
0.733252
0.708726
0.684729
0.557098
0.673921
1.06934
5.14364
4.27925
3.62299
2.93122
2.41986
2.04898
1.77436
1.56704
1.40866
1.28696
1.1718
1.06228
0.998795
0.944292
0.897074
0.855767
0.819295
0.786805
0.757628
0.731225
0.707243
0.683717
0.554909
0.650545
0.894005
2.52389
22.4294
5.96652
3.81207
2.82524
2.26718
1.90903
1.65965
1.47667
1.33836
1.23227
1.12964
1.03111
0.974791
0.925829
0.882895
0.844904
0.811006
0.780522
0.752918
0.727752
0.704751
0.682056
0.551797
0.632939
0.825575
1.44496
5.16058
71.5867
59.4267
7.58236
4.31996
3.04729
2.3805
1.9752
1.70408
1.5101
1.3648
1.25292
1.16549
1.07889
0.994579
0.946598
0.904124
0.866233
0.832182
0.801374
0.773329
0.747653
0.724023
0.702252
0.680582
0.548188
0.613679
0.745064
1.05021
1.79906
3.86088
5.74832
4.00919
3.12632
2.52115
2.11005
1.82178
1.61195
1.4536
1.33021
1.23161
1.1515
1.08568
1.03008
0.96035
0.920115
0.883772
0.850735
0.820539
0.792804
0.767217
0.743517
0.721473
0.700983
0.680331
0.545108
0.597689
0.689783
0.855589
1.11973
1.58451
1.9536
1.77565
1.7049
1.60253
1.49745
1.39965
1.3123
1.23545
1.16809
1.10897
1.05701
1.0112
0.970164
0.933354
0.899543
0.868366
0.839491
0.812648
0.787616
0.764199
0.742248
0.721616
0.702297
0.682504
0.543299
0.588113
0.658193
0.764467
0.910592
1.07413
1.21132
1.29859
1.3181
1.30438
1.27118
1.22881
1.1837
1.13877
1.09549
1.05455
1.01627
0.980739
0.947664
0.916855
0.887949
0.860722
0.83504
0.810788
0.787861
0.766159
0.745599
0.726083
0.707708
0.688467
0.543314
0.586459
0.647204
0.72752
0.825986
0.931422
1.02558
1.09563
1.13378
1.14705
1.14322
1.12921
1.10707
1.08099
1.05287
1.02398
0.995138
0.966828
0.939361
0.912895
0.887452
0.863031
0.839614
0.817181
0.79571
0.775165
0.755525
0.736713
0.718974
0.699854
0.545838
0.594663
0.656611
0.728851
0.808181
0.888421
0.960979
1.01893
1.05818
1.08013
1.08768
1.08504
1.07571
1.05983
1.04028
1.01847
0.995363
0.971656
0.947807
0.924137
0.900857
0.878104
0.855968
0.834505
0.813756
0.793731
0.774461
0.75585
0.738386
0.718816
0.552214
0.61706
0.691193
0.7674
0.841928
0.911558
0.972578
1.02179
1.05731
1.07963
1.09025
1.091
1.08653
1.07561
1.05993
1.04145
1.02108
0.999502
0.977254
0.954724
0.932205
0.909913
0.888001
0.866576
0.845728
0.82548
0.80594
0.786899
0.76931
0.748529
0.565535
0.663641
0.764632
0.85601
0.934408
0.999953
1.0533
1.09458
1.1239
1.14222
1.15038
1.1501
1.14518
1.13406
1.11848
1.10002
1.07953
1.05765
1.03492
1.01172
0.988394
0.965172
0.942248
0.919743
0.897799
0.8764
0.855805
0.835477
0.817326
0.794255
0.594046
0.759282
0.910234
1.02847
1.11558
1.1782
1.22305
1.2538
1.27273
1.28235
1.2826
1.27761
1.26648
1.25062
1.23125
1.20932
1.18557
1.16059
1.13487
1.10878
1.08263
1.05666
1.03108
1.00597
0.981581
0.957704
0.935012
0.912072
0.892885
0.865839
0.664504
0.975693
1.21559
1.36967
1.46128
1.51193
1.53964
1.55114
1.55081
1.54475
1.53086
1.51193
1.48902
1.46292
1.43441
1.40417
1.37278
1.3407
1.30833
1.27598
1.24394
1.21237
1.18154
1.15136
1.12239
1.09378
1.06742
1.03948
1.01868
0.984699
0.896587
1.57444
1.95099
2.11822
2.17847
2.1803
2.16549
2.13406
2.09616
2.05591
2.013
1.96813
1.9218
1.87483
1.82751
1.78011
1.7329
1.68613
1.64008
1.59491
1.5509
1.50801
1.46676
1.42644
1.38866
1.35051
1.31753
1.27946
1.25585
1.2089
2.25129
3.88436
4.19795
4.15083
4.01637
3.84892
3.69728
3.55867
3.43113
3.31266
3.20076
3.09395
2.99094
2.89408
2.80142
2.71213
2.62593
2.54272
2.46259
2.38548
2.31171
2.2407
2.17376
2.10826
2.04917
1.98727
1.93859
1.87666
1.84235
1.76903
25.3733
18.8433
15.4898
13.606
12.396
11.5396
10.8713
10.3122
9.8211
9.37535
8.96323
8.57836
8.21756
7.87976
7.56207
7.26309
6.98192
6.71777
6.46986
6.23727
6.01941
5.81468
5.62392
5.44214
5.27732
5.11045
4.9753
4.80902
4.70959
4.51557
0.557106
0.673959
1.07103
5.32308
4.38107
3.6493
2.93584
2.41964
2.04863
1.77527
1.56939
1.41206
1.29081
1.17532
1.06467
1.00036
0.94534
0.897799
0.856284
0.819672
0.787085
0.757839
0.731384
0.707363
0.683801
0.555787
0.66025
0.975252
3.80495
5.32628
3.84426
2.93426
2.37101
1.99515
1.72868
1.53172
1.3825
1.26798
1.15582
1.04786
0.987485
0.935455
0.890206
0.850458
0.815213
0.783689
0.755273
0.72947
0.705963
0.682846
0.553698
0.642354
0.852453
2.20403
64.2259
16.5715
5.70837
3.64282
2.71755
2.1924
1.8548
1.61979
1.44738
1.31696
1.21664
1.11635
1.01886
0.965136
0.918254
0.876977
0.840303
0.80745
0.777797
0.750853
0.726215
0.703634
0.681301
0.55068
0.626923
0.797283
1.29902
3.84669
54.7534
26.9499
6.39363
3.9352
2.86735
2.27928
1.91127
1.66061
1.47927
1.34245
1.23656
1.15339
1.06846
0.984932
0.938908
0.898026
0.861425
0.828413
0.798443
0.771072
0.745941
0.72275
0.701333
0.679966
0.547307
0.60908
0.727641
0.975605
1.61181
3.16072
4.55421
3.41488
2.82564
2.35125
2.00619
1.75422
1.56574
1.42075
1.30622
1.21378
1.13809
1.07546
1.0221
0.952993
0.914213
0.879053
0.846982
0.817576
0.790487
0.765427
0.742157
0.720463
0.70026
0.679854
0.544495
0.594702
0.680603
0.829264
1.0622
1.4727
1.79683
1.64579
1.60766
1.53008
1.44358
1.35922
1.28167
1.21202
1.15001
1.09493
1.04604
1.00256
0.963307
0.927841
0.895103
0.864796
0.836633
0.810377
0.785828
0.762812
0.741193
0.720835
0.701743
0.682142
0.542909
0.586303
0.653251
0.752651
0.887353
1.03629
1.16362
1.24829
1.27415
1.26661
1.24136
1.2048
1.16451
1.12345
1.08326
1.04478
1.00845
0.974467
0.942606
0.912757
0.88462
0.858025
0.832868
0.809053
0.786489
0.76509
0.744783
0.725475
0.707274
0.68818
0.543083
0.585421
0.64455
0.72176
0.815415
0.915217
1.005
1.07287
1.11184
1.12729
1.12584
1.11472
1.09497
1.07097
1.04461
1.01719
0.989547
0.962245
0.935609
0.909822
0.884938
0.860979
0.837947
0.815836
0.794634
0.774315
0.754865
0.73621
0.718603
0.699591
0.545714
0.594109
0.655224
0.725951
0.803064
0.880723
0.951058
1.0076
1.04658
1.06906
1.07763
1.07594
1.06791
1.05317
1.03463
1.0137
0.991355
0.968299
0.945003
0.9218
0.898913
0.876493
0.854636
0.83341
0.812861
0.793003
0.773874
0.75538
0.738013
0.718522
0.552156
0.616801
0.69054
0.766029
0.839446
0.907751
0.967535
1.01584
1.05096
1.07329
1.08422
1.08544
1.08141
1.07115
1.05602
1.03805
1.01814
0.996978
0.97509
0.952874
0.930628
0.908571
0.886861
0.865608
0.844907
0.824784
0.805348
0.786391
0.768869
0.748143
0.565514
0.663551
0.764395
0.855468
0.933351
0.998213
1.05084
1.0915
1.12041
1.13855
1.14674
1.14657
1.14182
1.13099
1.11569
1.09752
1.07729
1.05566
1.03315
1.01016
0.987014
0.963955
0.941175
0.918795
0.896959
0.875651
0.855131
0.834861
0.816748
0.793713
0.594044
0.759287
0.910239
1.02841
1.11531
1.17758
1.22201
1.25231
1.2709
1.28025
1.28036
1.27533
1.26419
1.24841
1.22915
1.20735
1.18373
1.15889
1.1333
1.10734
1.08131
1.05545
1.02997
1.00495
0.980635
0.956824
0.934181
0.911277
0.89209
0.865066
0.66451
0.975755
1.21576
1.36992
1.46151
1.51198
1.53942
1.55052
1.54996
1.54358
1.52938
1.51032
1.48733
1.46118
1.43267
1.40246
1.37111
1.33909
1.30679
1.27451
1.24254
1.21104
1.18028
1.15017
1.12124
1.09268
1.06634
1.03841
1.01755
0.983598
0.896594
1.57456
1.95132
2.11873
2.17905
2.18073
2.16572
2.13392
2.09568
2.05511
2.01188
1.96682
1.92032
1.87323
1.82583
1.77839
1.73116
1.6844
1.63837
1.59323
1.54926
1.50642
1.46522
1.42494
1.38719
1.34907
1.31604
1.27795
1.25405
1.20735
2.25129
3.88457
4.19843
4.15138
4.01693
3.8492
3.6972
3.55816
3.43023
3.31144
3.19928
3.09234
2.98913
2.8921
2.79932
2.70996
2.62371
2.54049
2.46036
2.38326
2.30951
2.23853
2.17161
2.10613
2.04698
1.98501
1.93596
1.87375
1.83784
1.76724
25.3733
18.843
15.4885
13.6034
12.3919
11.5344
10.8653
10.3058
9.81485
9.36952
8.95804
8.57393
8.21382
7.87672
7.55969
7.26132
6.9807
6.71701
6.46949
6.23722
6.01961
5.81505
5.62444
5.44273
5.27806
5.11123
4.97655
4.81051
4.71251
4.51875
0.55492
0.650597
0.894209
2.53221
21.6247
6.0808
3.83032
2.82754
2.26585
1.90862
1.66213
1.48246
1.34685
1.24219
1.13813
1.03628
0.978274
0.92823
0.884596
0.84614
0.811922
0.781211
0.75344
0.728148
0.705047
0.682261
0.553702
0.642363
0.852006
2.18852
84.9181
18.9006
5.68148
3.64451
2.71785
2.19158
1.85469
1.62145
1.45111
1.32242
1.22308
1.12159
1.0218
0.96714
0.919654
0.877981
0.84104
0.808001
0.778214
0.75117
0.726455
0.703813
0.681423
0.551445
0.629651
0.788228
1.48511
6.35893
8.44346
4.52085
3.13703
2.43203
2.00822
1.72719
1.52804
1.38024
1.26729
1.17935
1.0877
0.996821
0.947833
0.904728
0.866446
0.832145
0.801177
0.773023
0.747275
0.723593
0.701779
0.68009
0.548698
0.616399
0.756065
1.09705
2.19742
6.31849
10.4609
6.93157
4.38774
3.16325
2.4791
2.05269
1.76572
1.56104
1.4084
1.29078
1.19823
1.12439
1.04589
0.967558
0.925121
0.88714
0.852875
0.821745
0.793292
0.767143
0.742999
0.720608
0.699839
0.679013
0.545787
0.601492
0.70376
0.905804
1.33367
2.01501
2.56296
2.57112
2.31706
2.03954
1.80638
1.62013
1.47216
1.35338
1.25659
1.17661
1.10987
1.05369
1.00494
0.939762
0.903645
0.870642
0.840329
0.812359
0.786445
0.762344
0.739857
0.718801
0.699123
0.679154
0.543443
0.589706
0.666334
0.79212
0.975979
1.19887
1.37369
1.45018
1.44824
1.41211
1.35295
1.28989
1.22846
1.17094
1.1181
1.07002
1.02649
0.9871
0.951003
0.917968
0.887182
0.858462
0.831597
0.806411
0.782743
0.76046
0.739447
0.719589
0.700912
0.68165
0.542242
0.583246
0.645137
0.733961
0.850285
0.980402
1.09337
1.16798
1.20058
1.20337
1.1897
1.16284
1.13073
1.09633
1.06151
1.02735
0.994501
0.963252
0.93357
0.905454
0.878714
0.853276
0.829077
0.806058
0.784158
0.763312
0.743464
0.724538
0.706658
0.68782
0.542696
0.583679
0.640119
0.712236
0.797897
0.888918
0.971509
1.03483
1.07436
1.09309
1.0959
1.08883
1.07352
1.05315
1.02988
1.00506
0.979578
0.954087
0.928945
0.904387
0.880517
0.857398
0.835066
0.813541
0.792831
0.772925
0.75382
0.735453
0.718089
0.699266
0.545514
0.593209
0.652942
0.721138
0.794478
0.867801
0.9343
0.988219
1.02652
1.04975
1.06001
1.05989
1.05399
1.04138
1.02457
1.00521
0.984234
0.962351
0.940052
0.917694
0.895519
0.8737
0.852351
0.831554
0.811369
0.791817
0.772946
0.754665
0.73748
0.718124
0.552071
0.616414
0.689528
0.763829
0.835363
0.901388
0.958993
1.00564
1.03995
1.06223
1.07366
1.07566
1.07235
1.06324
1.04909
1.03203
1.01295
0.992523
0.971283
0.949633
0.927878
0.906244
0.884899
0.863959
0.843525
0.823628
0.804383
0.785582
0.768192
0.747561
0.565493
0.663457
0.764106
0.854712
0.931742
0.995436
1.0468
1.08632
1.11447
1.13223
1.14041
1.14041
1.13593
1.12558
1.11076
1.09308
1.07332
1.05214
1.03003
1.00741
0.98459
0.961823
0.939301
0.917147
0.895505
0.874364
0.853984
0.833825
0.815803
0.79283
0.594051
0.75935
0.910367
1.02848
1.11508
1.17677
1.22044
1.24993
1.26787
1.2767
1.27655
1.27137
1.26016
1.24451
1.22543
1.20385
1.18046
1.15585
1.1305
1.10475
1.07894
1.05327
1.02797
1.00311
0.978943
0.955253
0.932712
0.909881
0.890748
0.863758
0.664525
0.975906
1.21616
1.37054
1.46215
1.51234
1.53928
1.54966
1.54863
1.54166
1.52685
1.50753
1.48433
1.45808
1.42954
1.39936
1.36808
1.33615
1.30396
1.27181
1.23997
1.20859
1.17796
1.14796
1.11914
1.09067
1.0644
1.0365
1.01567
0.98169
0.896608
1.57479
1.95199
2.11976
2.18025
2.18167
2.16632
2.1338
2.09492
2.05371
2.00988
1.9644
1.91758
1.87025
1.82269
1.77516
1.7279
1.68115
1.63515
1.59007
1.54618
1.50343
1.46231
1.42212
1.38444
1.34637
1.31339
1.27523
1.25157
1.20433
2.2513
3.88493
4.19932
4.15239
4.01795
3.84968
3.69699
3.55711
3.42841
3.30897
3.19628
3.08904
2.98548
2.88814
2.79514
2.70565
2.61933
2.53609
2.45599
2.37894
2.30526
2.23435
2.1675
2.10207
2.04297
1.981
1.93206
1.86915
1.83678
1.75942
25.3733
18.8425
15.4862
13.5986
12.3844
11.5244
10.8536
10.2931
9.80205
9.35724
8.94676
8.56391
8.20502
7.86914
7.5533
7.25604
6.97641
6.71358
6.4668
6.23512
6.01799
5.81378
5.62346
5.44187
5.27743
5.11046
4.97656
4.80806
4.72216
4.50887
0.551812
0.633072
0.826185
1.44648
5.35494
92.7096
7.65215
4.33527
3.05157
2.38041
1.97399
1.70419
1.5132
1.37152
1.26296
1.17769
1.08925
1.00079
0.951028
0.907326
0.868593
0.833949
0.802713
0.774349
0.748432
0.724611
0.702683
0.680862
0.550693
0.627015
0.797639
1.29761
3.8457
57.7033
33.2118
6.40591
3.94087
2.86921
2.27907
1.91049
1.66088
1.4818
1.34775
1.24444
1.16301
1.07632
0.989385
0.942112
0.900371
0.863172
0.829733
0.79945
0.771842
0.746529
0.723193
0.701655
0.680172
0.548704
0.616435
0.75617
1.09653
2.19501
6.40256
10.5176
6.95678
4.39708
3.16615
2.47985
2.05266
1.76553
1.56128
1.40957
1.29313
1.20174
1.12873
1.04939
0.969508
0.926566
0.888226
0.853702
0.82238
0.793781
0.767519
0.743287
0.720823
0.699991
0.679105
0.546324
0.604335
0.714006
0.940466
1.46082
2.33574
3.57768
3.46696
2.88853
2.39939
2.0402
1.77802
1.58267
1.4333
1.31626
1.22268
1.14681
1.08456
1.01562
0.945937
0.908132
0.873856
0.84256
0.813817
0.787288
0.762693
0.73981
0.718439
0.698504
0.67835
0.543986
0.592704
0.676795
0.823632
1.05162
1.47488
1.792
1.89529
1.83476
1.70977
1.57895
1.46004
1.35687
1.26862
1.19322
1.12857
1.07294
1.02481
0.982042
0.923375
0.890665
0.860432
0.832373
0.806241
0.781827
0.758953
0.737468
0.717232
0.698233
0.678804
0.542216
0.583945
0.650225
0.751716
0.891769
1.05142
1.18726
1.26558
1.28918
1.27912
1.24926
1.20861
1.16491
1.12124
1.07916
1.03943
1.00236
0.967969
0.935802
0.905843
0.877551
0.850865
0.825671
0.801858
0.779326
0.757984
0.737751
0.718535
0.700393
0.681548
0.541485
0.57978
0.635978
0.713218
0.810527
0.917183
1.01291
1.08142
1.1191
1.13184
1.12776
1.11269
1.08978
1.06317
1.03479
1.0059
0.977301
0.94945
0.922502
0.896581
0.871638
0.847687
0.824721
0.802727
0.78168
0.761543
0.742287
0.72385
0.706384
0.687856
0.542281
0.581787
0.635225
0.701632
0.778418
0.858945
0.932893
0.991491
1.03104
1.05286
1.0602
1.05728
1.04732
1.03128
1.01176
0.99013
0.96737
0.944151
0.920896
0.897898
0.875321
0.853276
0.831842
0.81107
0.790991
0.771614
0.752952
0.734951
0.717902
0.699303
0.545327
0.592338
0.650604
0.71598
0.784974
0.853154
0.914996
0.965776
1.00301
1.02684
1.03879
1.04078
1.03686
1.02697
1.01231
0.994882
0.975611
0.955198
0.934157
0.912866
0.891596
0.87054
0.849839
0.82959
0.809867
0.790706
0.772164
0.754153
0.737206
0.718006
0.552019
0.616154
0.688706
0.761766
0.831208
0.894526
0.949462
0.99403
1.02721
1.04925
1.06112
1.06402
1.06147
1.05369
1.04073
1.02479
1.00673
0.987219
0.966789
0.945848
0.924709
0.903608
0.882721
0.862176
0.842079
0.822469
0.803466
0.784862
0.767651
0.747127
0.565508
0.66353
0.764135
0.85437
0.930526
0.992878
1.0427
1.08079
1.1079
1.12505
1.1331
1.13326
1.12899
1.11913
1.10488
1.08778
1.06859
1.04793
1.02631
1.00414
0.98173
0.959325
0.937122
0.915249
0.893853
0.872921
0.852721
0.832703
0.814813
0.791913
0.594091
0.759583
0.910864
1.02911
1.1155
1.17657
1.21933
1.24777
1.26483
1.27287
1.27236
1.26686
1.25544
1.23987
1.22096
1.19959
1.17646
1.15212
1.12703
1.10155
1.07599
1.05056
1.02548
1.00083
0.976834
0.953299
0.930893
0.908163
0.889123
0.862184
0.664563
0.976212
1.21695
1.37178
1.46357
1.5135
1.53985
1.54927
1.54759
1.53973
1.52407
1.5043
1.48072
1.45425
1.42561
1.3954
1.36416
1.33232
1.30025
1.26824
1.23655
1.20533
1.17485
1.145
1.11631
1.08795
1.06179
1.03397
1.01319
0.979258
0.896632
1.57516
1.95305
2.12144
2.18225
2.18337
2.16756
2.13409
2.09428
2.05212
2.0074
1.96126
1.91394
1.86621
1.81838
1.77067
1.72332
1.67655
1.63059
1.58559
1.5418
1.49916
1.45816
1.41809
1.38052
1.34255
1.30967
1.27155
1.24787
1.20078
2.25131
3.88545
4.20058
4.15383
4.01942
3.85037
3.69664
3.55552
3.42565
3.30518
3.19166
3.08384
2.97996
2.88207
2.78871
2.69901
2.6126
2.52935
2.44931
2.37235
2.2988
2.22802
2.16131
2.09601
2.03704
1.97514
1.92636
1.86343
1.83075
1.7544
25.3732
18.8418
15.4829
13.5917
12.3733
11.5095
10.8356
10.2733
9.7815
9.33694
8.92744
8.54601
8.18873
7.85433
7.54003
7.24424
6.96596
6.70433
6.45856
6.22774
6.01129
5.8076
5.61766
5.43635
5.27205
5.10521
4.9713
4.80279
4.71713
4.50348
0.54819
0.613621
0.743911
1.02285
1.80964
3.95384
5.87963
4.05385
3.14183
2.52719
2.11234
1.82218
1.61175
1.45396
1.33211
1.23566
1.15779
1.09374
1.03804
0.965646
0.924227
0.886941
0.853185
0.822436
0.794272
0.768343
0.744364
0.72209
0.70141
0.680574
0.547317
0.609151
0.728263
0.978144
1.61307
3.18694
4.57852
3.45267
2.83711
2.35589
2.00799
1.75461
1.56567
1.42112
1.30779
1.21705
1.14317
1.08198
1.02858
0.957116
0.917447
0.881573
0.848948
0.819109
0.791677
0.766341
0.742843
0.72096
0.700598
0.680039
0.545795
0.601543
0.703984
0.906279
1.33415
2.01786
2.56762
2.57822
2.32182
2.04199
1.80746
1.62046
1.47224
1.35367
1.25752
1.17848
1.11277
1.05744
1.00874
0.942145
0.905563
0.87217
0.841543
0.813316
0.787192
0.762916
0.740282
0.719104
0.699321
0.679248
0.54399
0.592725
0.676869
0.823789
1.05186
1.47547
1.79336
1.89694
1.83604
1.71057
1.57937
1.46022
1.35695
1.26876
1.19355
1.1292
1.07393
1.02612
0.983405
0.924254
0.891403
0.861039
0.832866
0.806635
0.782135
0.759186
0.737637
0.717347
0.698301
0.678824
0.542295
0.584562
0.65292
0.76006
0.910525
1.15256
1.35154
1.4582
1.47316
1.43574
1.3752
1.30892
1.24404
1.18362
1.12859
1.07894
1.03436
0.994334
0.957876
0.907141
0.878059
0.850775
0.825113
0.800934
0.778116
0.756544
0.736123
0.716756
0.698482
0.679589
0.541119
0.578789
0.635943
0.717567
0.823486
0.94076
1.04559
1.11743
1.15343
1.16115
1.15193
1.1306
1.10275
1.07201
1.0403
1.0088
0.978219
0.948899
0.92082
0.894093
0.868446
0.84393
0.820519
0.798175
0.776858
0.756516
0.737107
0.718568
0.700999
0.682556
0.540866
0.576884
0.628099
0.695292
0.776459
0.863636
0.943843
1.00575
1.04546
1.06512
1.06927
1.06326
1.04936
1.03025
1.00821
0.984595
0.960308
0.935953
0.911853
0.888247
0.865219
0.842853
0.821204
0.800302
0.780159
0.760772
0.742137
0.724211
0.707187
0.688946
0.542006
0.580449
0.631404
0.692824
0.761707
0.832692
0.898354
0.952131
0.990838
1.01472
1.02583
1.02666
1.02133
1.00973
0.99392
0.975553
0.955586
0.934718
0.913431
0.892069
0.870854
0.849947
0.829463
0.809484
0.790066
0.771241
0.753038
0.735414
0.718701
0.700295
0.545275
0.592003
0.649287
0.712346
0.77745
0.840771
0.898045
0.945574
0.981394
1.00539
1.01865
1.02257
1.02037
1.01308
1.00056
0.985088
0.967549
0.948645
0.928903
0.90872
0.888391
0.868133
0.848104
0.828421
0.809176
0.790415
0.772208
0.754469
0.737775
0.718698
0.552088
0.616394
0.688845
0.761121
0.828849
0.889691
0.941971
0.984344
1.01616
1.03768
1.04975
1.05336
1.05144
1.04483
1.033
1.01816
1.0011
0.982504
0.962888
0.942663
0.922149
0.90159
0.881169
0.861022
0.841265
0.821942
0.803184
0.784772
0.767753
0.747301
0.565624
0.664042
0.765044
0.855352
0.930996
0.992221
1.04055
1.07712
1.10301
1.11932
1.12701
1.12715
1.12294
1.11338
1.09961
1.08302
1.06433
1.04417
1.02302
1.00128
0.979261
0.957209
0.935321
0.913725
0.89257
0.871845
0.851825
0.831942
0.814201
0.791344
0.594202
0.760179
0.91214
1.03097
1.11751
1.17817
1.22006
1.24736
1.26337
1.27037
1.26934
1.26328
1.25146
1.23579
1.2169
1.19564
1.17268
1.14854
1.12367
1.09842
1.07309
1.04789
1.02301
0.998551
0.974733
0.951351
0.929084
0.906453
0.887526
0.860629
0.664645
0.976796
1.2184
1.3741
1.4664
1.51625
1.54202
1.55034
1.54786
1.53875
1.52217
1.50163
1.47744
1.45056
1.42164
1.39128
1.35998
1.32815
1.29615
1.26423
1.23267
1.20159
1.17126
1.14155
1.11301
1.08477
1.05873
1.031
1.01027
0.976436
0.896677
1.57574
1.95464
2.12397
2.18536
2.18625
2.16992
2.1353
2.09431
2.05084
2.00497
1.95787
1.90981
1.86147
1.81319
1.76518
1.71765
1.67079
1.62482
1.57987
1.53617
1.49365
1.45279
1.41285
1.37542
1.33758
1.30479
1.26687
1.24291
1.19637
2.25132
3.88612
4.20221
4.1557
4.02131
3.85126
3.69613
3.55334
3.42184
3.2999
3.18519
3.07644
2.97207
2.87343
2.77955
2.68953
2.60297
2.51971
2.43974
2.36292
2.28954
2.21896
2.15247
2.08735
2.02858
1.96688
1.91807
1.85609
1.81949
1.7494
25.3732
18.8409
15.4786
13.5827
12.3585
11.4892
10.8106
10.245
9.75134
9.30627
8.89726
8.51702
8.16136
7.82852
7.51594
7.2219
6.94527
6.68515
6.44073
6.21104
5.99555
5.79263
5.60331
5.42242
5.25851
5.09186
4.95777
4.79173
4.69386
4.50123
0.54511
0.597672
0.689583
0.855655
1.12324
1.59312
1.96461
1.78203
1.70908
1.60512
1.49886
1.4003
1.3126
1.23585
1.16898
1.11068
1.05969
1.01476
0.974059
0.93696
0.902623
0.870898
0.841525
0.814251
0.788855
0.765134
0.742925
0.722067
0.702545
0.682548
0.544503
0.594747
0.680842
0.830741
1.06406
1.47731
1.80327
1.64945
1.61082
1.53212
1.44473
1.35978
1.28196
1.21237
1.15074
1.0963
1.04819
1.00542
0.966458
0.930776
0.897631
0.866891
0.838326
0.811716
0.786865
0.763593
0.741754
0.721201
0.701931
0.682154
0.543451
0.589751
0.666504
0.792664
0.976796
1.20024
1.3755
1.45214
1.44999
1.41336
1.35372
1.29032
1.22871
1.17121
1.11859
1.0709
1.02784
0.988912
0.953028
0.919883
0.888859
0.85987
0.832747
0.807325
0.783452
0.760989
0.739818
0.719817
0.701008
0.681615
0.542221
0.583972
0.65031
0.751928
0.892105
1.05198
1.18804
1.26644
1.28996
1.27975
1.24968
1.20887
1.16508
1.12141
1.07943
1.03987
1.00302
0.968844
0.936801
0.906805
0.878412
0.851602
0.826279
0.802344
0.7797
0.758256
0.73793
0.718628
0.700406
0.681479
0.541121
0.5788
0.635973
0.717634
0.823596
0.940936
1.04583
1.1177
1.15369
1.16137
1.15209
1.13071
1.10283
1.07208
1.0404
1.00895
0.978433
0.949182
0.921151
0.894412
0.868738
0.844183
0.820728
0.798342
0.776983
0.756601
0.737154
0.718577
0.700972
0.682493
0.540479
0.57557
0.62634
0.694195
0.777335
0.867235
0.949969
1.01315
1.05282
1.07146
1.07422
1.06686
1.05132
1.03095
1.00789
0.98345
0.958545
0.933757
0.909352
0.885531
0.862321
0.839804
0.818031
0.797035
0.776826
0.757395
0.738734
0.720798
0.703751
0.685595
0.540647
0.575599
0.623642
0.683767
0.753306
0.826354
0.89441
0.94983
0.989111
1.01262
1.02281
1.0226
1.0161
1.00321
0.986553
0.967509
0.94704
0.925821
0.904307
0.882817
0.861535
0.840615
0.82016
0.800244
0.780917
0.762202
0.744119
0.726638
0.710009
0.691943
0.542082
0.580494
0.630312
0.688471
0.751605
0.815259
0.87409
0.92336
0.960497
0.985236
0.998782
1.00276
1.00035
0.992741
0.98012
0.96459
0.947083
0.928307
0.908777
0.888875
0.868875
0.848982
0.829341
0.810064
0.791229
0.772883
0.755076
0.737765
0.721346
0.703026
0.545525
0.592867
0.650278
0.712277
0.774774
0.834347
0.88774
0.932259
0.96642
0.990067
1.00399
1.00929
1.00827
1.00297
0.99228
0.978442
0.962377
0.944766
0.926143
0.906914
0.887394
0.86782
0.848366
0.829166
0.810323
0.791895
0.773964
0.756436
0.739961
0.720904
0.55241
0.617665
0.690975
0.763476
0.830433
0.889567
0.939671
0.979979
1.01028
1.03094
1.04279
1.04672
1.04513
1.03923
1.02825
1.01423
0.997955
0.980079
0.961113
0.941463
0.921452
0.901327
0.881281
0.861453
0.841965
0.822866
0.804298
0.786021
0.76917
0.748696
0.565937
0.665416
0.767668
0.858931
0.934828
0.995498
1.04267
1.07782
1.10239
1.11759
1.1246
1.12441
1.11998
1.11035
1.09678
1.08045
1.06207
1.04223
1.02139
0.999946
0.978206
0.956409
0.93475
0.913356
0.892379
0.871802
0.851918
0.832117
0.814515
0.791618
0.594454
0.761456
0.914853
1.03504
1.12241
1.18312
1.22439
1.25058
1.26543
1.27109
1.26932
1.26231
1.24989
1.23377
1.21463
1.19325
1.17025
1.14615
1.12136
1.09622
1.07101
1.04594
1.0212
0.99687
0.973178
0.9499
0.927744
0.905166
0.886363
0.859437
0.66481
0.97788
1.22099
1.37823
1.4716
1.52172
1.54706
1.55422
1.55079
1.54012
1.52236
1.5007
1.47561
1.448
1.41855
1.38781
1.35627
1.32429
1.29222
1.26031
1.22879
1.19778
1.16755
1.13794
1.10951
1.08137
1.05544
1.02776
1.00714
0.97334
0.896756
1.57664
1.95707
2.12783
2.19016
2.19097
2.1741
2.13817
2.09571
2.05056
2.0032
1.95479
1.90567
1.85644
1.80746
1.75894
1.71107
1.664
1.61794
1.57297
1.52932
1.48688
1.44615
1.40633
1.36906
1.33133
1.2987
1.2609
1.23692
1.19064
2.25133
3.88698
4.20429
4.15808
4.02373
3.85239
3.69545
3.55048
3.41681
3.29285
3.17646
3.06637
2.96119
2.86155
2.76696
2.67648
2.5897
2.50637
2.42647
2.34981
2.27667
2.20634
2.14013
2.07527
2.0168
1.95532
1.90674
1.84512
1.80806
1.73883
25.3732
18.8399
15.4734
13.5714
12.3395
11.4625
10.7769
10.206
9.70873
9.2618
8.85233
8.47268
8.11831
7.78695
7.47618
7.1841
6.90942
6.65116
6.40845
6.18029
5.96614
5.76436
5.57602
5.39589
5.23267
5.06647
4.93283
4.7672
4.66909
4.47745
0.543303
0.588124
0.658211
0.764729
0.911877
1.0762
1.21383
1.30118
1.32017
1.306
1.27221
1.22945
1.1841
1.13914
1.09603
1.05545
1.01763
0.982547
0.949734
0.918909
0.88981
0.862323
0.836356
0.811822
0.788628
0.766678
0.745889
0.726159
0.707577
0.688128
0.542915
0.586336
0.653377
0.753154
0.888286
1.03774
1.16538
1.25016
1.2758
1.26793
1.24224
1.20537
1.16488
1.12379
1.08372
1.04552
1.00958
0.975963
0.944328
0.914474
0.886188
0.85938
0.833985
0.809929
0.787134
0.765519
0.745009
0.725512
0.707127
0.687847
0.542249
0.583281
0.64525
0.73428
0.85083
0.981241
1.09444
1.16915
1.20167
1.20425
1.19036
1.16328
1.13104
1.09661
1.06186
1.02788
0.995277
0.964277
0.934755
0.906646
0.879818
0.854236
0.829869
0.806675
0.784603
0.763592
0.743589
0.724515
0.706488
0.687505
0.54149
0.579805
0.63605
0.713387
0.810811
0.917615
1.01348
1.08205
1.11971
1.13236
1.12819
1.113
1.09
1.06337
1.03502
1.00622
0.977749
0.95003
0.923174
0.897265
0.872278
0.848246
0.82518
0.803077
0.78192
0.761675
0.742313
0.723774
0.706206
0.687577
0.540869
0.576898
0.628135
0.69537
0.776589
0.863832
0.9441
1.00604
1.04575
1.06538
1.0695
1.06345
1.0495
1.03038
1.00835
0.984763
0.960524
0.936221
0.912159
0.888559
0.86551
0.843106
0.821406
0.800447
0.780245
0.760798
0.742103
0.724118
0.707031
0.68873
0.540649
0.575604
0.623655
0.683793
0.75335
0.826419
0.894496
0.94993
0.989215
1.01272
1.0229
1.02268
1.01617
1.00327
0.986617
0.967578
0.947119
0.92591
0.904402
0.882911
0.861622
0.840688
0.820214
0.800277
0.780926
0.762186
0.744078
0.726571
0.709915
0.691823
0.54114
0.577095
0.624693
0.681406
0.744011
0.807888
0.86732
0.917188
0.954722
0.979619
0.993148
0.99704
0.994475
0.98666
0.973955
0.958346
0.940797
0.922015
0.902517
0.882676
0.862757
0.842957
0.823418
0.804246
0.78552
0.767284
0.749585
0.73239
0.716042
0.697944
0.542783
0.582965
0.633834
0.691232
0.751334
0.810278
0.864133
0.909583
0.944738
0.969249
0.98388
0.989801
0.989056
0.984131
0.973898
0.960399
0.944691
0.927459
0.909235
0.890421
0.871323
0.852171
0.833137
0.81435
0.795909
0.777873
0.760312
0.74317
0.726948
0.708519
0.546318
0.595857
0.655251
0.718127
0.779905
0.837335
0.887938
0.929877
0.962223
0.984963
0.998782
1.00462
1.00415
0.999881
0.99044
0.977616
0.962512
0.945766
0.927895
0.909308
0.890327
0.871199
0.852111
0.833206
0.814598
0.79635
0.778562
0.761114
0.744776
0.725557
0.553189
0.620779
0.696581
0.770936
0.838561
0.897115
0.945782
0.984335
1.01303
1.03246
1.04355
1.04717
1.04547
1.0396
1.02893
1.01526
0.999354
0.981838
0.963207
0.943859
0.924111
0.90421
0.88435
0.864674
0.845308
0.826297
0.807803
0.789542
0.772797
0.752133
0.566612
0.66834
0.7733
0.866957
0.944315
1.0053
1.05182
1.08572
1.10887
1.12266
1.12852
1.12767
1.12248
1.11222
1.09843
1.08196
1.06352
1.04367
1.02287
1.00148
0.979805
0.958075
0.936481
0.915143
0.894216
0.873672
0.853827
0.834004
0.8165
0.793413
0.594964
0.763972
0.920095
1.04292
1.13214
1.19361
1.23461
1.25975
1.27328
1.27727
1.27445
1.26601
1.25254
1.23552
1.21573
1.19386
1.17051
1.14615
1.1212
1.09595
1.07069
1.04559
1.02086
0.99653
0.97286
0.949593
0.927479
0.904863
0.886173
0.85909
0.665131
0.979879
1.22559
1.38544
1.48072
1.5316
1.55672
1.56262
1.55808
1.54547
1.52614
1.50291
1.47648
1.44775
1.4174
1.38596
1.35388
1.32152
1.28918
1.25709
1.22547
1.19442
1.16418
1.13458
1.1062
1.07808
1.05224
1.02454
1.00407
0.97019
0.896905
1.57814
1.96092
2.13386
2.19767
2.1986
2.18116
2.14371
2.0994
2.05213
2.00282
1.95263
1.90202
1.85153
1.80154
1.75224
1.70379
1.65634
1.61003
1.56494
1.52125
1.47884
1.43819
1.39847
1.36135
1.32371
1.29127
1.25351
1.22965
1.18354
2.25136
3.88815
4.20707
4.16125
4.02693
3.85391
3.69456
3.54675
3.41022
3.28357
3.16489
3.05293
2.94648
2.84556
2.75002
2.65893
2.5718
2.48836
2.40853
2.33204
2.25917
2.18915
2.12332
2.05878
2.00071
1.93949
1.89133
1.82988
1.793
1.72412
25.3732
18.8386
15.467
13.5569
12.3147
11.427
10.7315
10.1526
9.64939
9.19877
8.78748
8.40752
8.05393
7.72388
7.41497
7.12505
6.85268
6.59672
6.35621
6.13011
5.91785
5.71773
5.53093
5.35205
5.19008
5.02475
4.89207
4.72728
4.6292
4.43913
0.543318
0.586479
0.647262
0.72773
0.826587
0.93239
1.02679
1.09693
1.13496
1.14804
1.14401
1.12977
1.10748
1.08133
1.05322
1.02442
0.995732
0.967597
0.940257
0.913813
0.888296
0.863734
0.840137
0.817506
0.79583
0.775081
0.755237
0.736224
0.718272
0.698945
0.543089
0.585448
0.644633
0.722005
0.81591
0.915984
1.00596
1.07392
1.11284
1.12814
1.12654
1.11522
1.09534
1.07129
1.04493
1.01758
0.990065
0.962907
0.936376
0.910606
0.885657
0.861575
0.838384
0.816098
0.794713
0.774211
0.754577
0.73574
0.717941
0.698743
0.542702
0.583705
0.640196
0.712426
0.79824
0.889437
0.972171
1.03557
1.07509
1.09374
1.09643
1.08927
1.07384
1.05342
1.03015
1.00537
0.979975
0.954578
0.929505
0.904955
0.881034
0.85782
0.835365
0.813702
0.792846
0.772792
0.753537
0.735021
0.717499
0.698525
0.542285
0.581808
0.635281
0.701755
0.778629
0.859261
0.933301
0.991956
1.03152
1.0533
1.06058
1.05761
1.04758
1.0315
1.01197
0.990364
0.967644
0.944471
0.92125
0.898249
0.875633
0.853522
0.832001
0.811131
0.790947
0.771461
0.752688
0.734576
0.717409
0.698697
0.542009
0.580463
0.631437
0.692894
0.761825
0.832865
0.89858
0.952394
0.991115
1.01499
1.02608
1.02688
1.02153
1.0099
0.99408
0.975717
0.955762
0.934908
0.913628
0.892256
0.871011
0.85006
0.82952
0.809478
0.789992
0.771096
0.75282
0.735121
0.718327
0.699845
0.542084
0.580501
0.630329
0.688505
0.751662
0.815343
0.874199
0.923489
0.960637
0.98538
0.998922
1.00289
1.00047
0.992854
0.980227
0.964693
0.947184
0.928406
0.908872
0.888958
0.86894
0.849021
0.829349
0.810036
0.791162
0.772776
0.754927
0.737573
0.721106
0.702742
0.542784
0.582968
0.63384
0.691244
0.751355
0.810308
0.864173
0.909631