/*--------------------------------*- C++ -*----------------------------------*\
  =========                 |
  \\      /  F ield         | OpenFOAM: The Open Source CFD Toolbox
   \\    /   O peration     | Website:  https://openfoam.org
    \\  /    A nd           | Version:  10
     \\/     M anipulation  |
\*---------------------------------------------------------------------------*/
FoamFile
{
    format      ascii;
    class       volScalarField;
    location    "300";
    object      p;
}
// * * * * * * * * * * * * * * * * * * * * * * * * * * * * * * * * * * * * * //

dimensions      [0 2 -2 0 0 0 0];

internalField   nonuniform List<scalar> 
27507
(
121.344
190.891
292.451
507.577
-51.1998
-33.1406
-20.9605
-13.1163
-7.99001
-4.57743
-2.12046
-0.00325588
2.38798
5.08386
3.32483
2.16518
1.60602
1.21909
0.929013
0.721774
0.572236
0.454497
0.412426
0.257692
0.731096
105.123
157.824
259.275
436.715
-50.0083
-31.654
-19.9724
-12.5304
-7.69479
-4.46667
-2.12261
-0.0944947
2.1257
4.3246
2.94642
1.97753
1.50088
1.16335
0.902208
0.713331
0.576668
0.470668
0.429564
0.296076
0.714825
85.7287
109.615
192.338
315.564
-69.3945
-43.5533
-27.0655
-17.2364
-11.0171
-6.97716
-4.26912
-2.28284
-0.538954
1.36677
3.26542
2.38239
1.68732
1.32721
1.05599
0.837004
0.674585
0.555419
0.462126
0.426438
0.29851
0.693876
68.4864
71.5424
112.025
183.766
205.357
8.67482
-116.579
-61.2661
-34.9774
-21.6028
-13.9067
-9.14408
-6.08645
-4.05052
-2.5534
-1.20912
0.313308
2.0204
1.76892
1.35518
1.11846
0.918897
0.746934
0.613832
0.513602
0.433207
0.403817
0.281276
0.654753
52.3322
50.7879
58.608
70.7418
76.9888
13.6104
-62.6629
-59.657
-37.5582
-23.3821
-14.9631
-9.89641
-6.7884
-4.84984
-3.59054
-2.65274
-1.75068
-0.657321
0.747355
1.22657
1.03998
0.910195
0.775171
0.647723
0.54329
0.46197
0.394469
0.371636
0.25569
0.601829
38.0538
36.9412
37.0265
37.7508
20.2615
-0.916275
-26.881
-27.3285
-20.1272
-13.4577
-9.06598
-6.21298
-4.34794
-3.11873
-2.25952
-1.56882
-0.902894
-0.215453
0.402925
0.775163
0.775761
0.719003
0.636146
0.546997
0.46823
0.404451
0.349267
0.3328
0.224681
0.537357
26.7023
25.5526
24.0449
20.9634
11.1908
-5.10464
-14.2022
-16.9388
-13.1703
-9.52261
-6.81331
-4.8304
-3.43438
-2.46021
-1.74941
-1.17781
-0.660126
-0.166554
0.259739
0.527533
0.575796
0.557112
0.508699
0.448636
0.391408
0.343261
0.299694
0.289268
0.190693
0.46386
18.4421
17.1833
15.0754
11.0897
4.4501
-4.0354
-9.21754
-10.6659
-8.93212
-6.91297
-5.17101
-3.78214
-2.7436
-1.98055
-1.40047
-0.928786
-0.516064
-0.146703
0.155877
0.348077
0.407845
0.412291
0.388477
0.351321
0.312605
0.278659
0.246441
0.241935
0.155441
0.38429
12.8264
11.488
9.19139
5.35809
0.661517
-4.14819
-6.85666
-7.5411
-6.57804
-5.30347
-4.11039
-3.10712
-2.3164
-1.70644
-1.22621
-0.830778
-0.491588
-0.200134
0.0314928
0.184327
0.251401
0.273203
0.269255
0.251619
0.229745
0.20933
0.188875
0.190506
0.119953
0.301797
9.30906
7.87223
5.50425
2.13017
-1.21573
-4.08236
-5.55815
-5.8277
-5.18679
-4.31334
-3.4578
-2.70731
-2.0899
-1.59139
-1.18537
-0.845677
-0.555785
-0.31101
-0.117357
0.0173611
0.0924168
0.13014
0.144562
0.145193
0.139731
0.132945
0.125388
0.133784
0.0845984
0.219303
7.37536
5.82368
3.4344
0.585908
-1.85974
-3.68759
-4.57732
-4.69594
-4.27222
-3.67091
-3.05377
-2.48916
-2.00294
-1.59207
-1.24447
-0.946537
-0.68943
-0.47118
-0.295237
-0.164906
-0.0788627
-0.0242626
0.0088836
0.0279493
0.0394418
0.0469904
0.054084
0.0694991
0.0482675
0.137022
6.5552
4.9179
2.62424
0.305301
-1.55969
-2.89188
-3.58577
-3.75247
-3.5516
-3.19025
-2.77912
-2.3751
-2.00322
-1.67021
-1.37416
-1.11047
-0.876423
-0.672761
-0.502597
-0.368088
-0.268022
-0.195017
-0.142125
-0.103747
-0.07415
-0.0509972
-0.0270069
-0.00491427
0.00707157
0.0502899
6.41934
4.8109
2.81116
0.975816
-0.551082
-1.71992
-2.45804
-2.80991
-2.86874
-2.75568
-2.55166
-2.30661
-2.04911
-1.79451
-1.54976
-1.31819
-1.10284
-0.907627
-0.736859
-0.593383
-0.477246
-0.384641
-0.310969
-0.252041
-0.202453
-0.16093
-0.115183
-0.0836987
-0.0269987
-0.0322453
6.54104
5.20584
3.6865
2.2387
0.88377
-0.294388
-1.19617
-1.80402
-2.15116
-2.3035
-2.31946
-2.24383
-2.10979
-1.94049
-1.75163
-1.55437
-1.3576
-1.16905
-0.995334
-0.841106
-0.708319
-0.595934
-0.501339
-0.42163
-0.351728
-0.291314
-0.222739
-0.179169
-0.0545813
-0.10419
6.47653
5.73723
4.73238
3.58449
2.35322
1.14652
0.0809751
-0.774048
-1.39886
-1.81353
-2.05276
-2.15374
-2.15117
-2.07445
-1.94714
-1.78789
-1.61159
-1.4304
-1.25412
-1.08996
-0.942179
-0.812306
-0.699823
-0.603931
-0.52152
-0.455871
-0.388934
-0.363682
-0.204887
-0.320557
6.34832
6.04607
5.41271
4.50753
3.4219
2.25791
1.12884
0.130535
-0.681527
-1.29291
-1.71525
-1.97338
-2.09758
-2.11813
-2.06218
-1.95281
-1.80913
-1.64694
-1.47897
-1.315
-1.1615
-1.02191
-0.896712
-0.784666
-0.680065
-0.581336
-0.468279
-0.386627
-0.236434
-0.709068
105.071
157.745
259.194
435.383
-49.7974
-31.5409
-19.9512
-12.5417
-7.72166
-4.51162
-2.19406
-0.195595
2.02033
4.41064
3.02248
2.00689
1.5032
1.14776
0.87494
0.677537
0.533853
0.422113
0.376494
0.245359
0.662814
93.4428
130.096
227.671
379.298
-47.9064
-29.8739
-18.8827
-11.9219
-7.3945
-4.35849
-2.14561
-0.232645
1.819
3.77743
2.70879
1.84119
1.40888
1.09812
0.851355
0.670822
0.539308
0.438374
0.393557
0.276085
0.70099
78.3865
91.7938
167.525
266.884
404.134
-72.1782
-41.1442
-25.5555
-16.302
-10.4643
-6.65886
-4.08918
-2.19537
-0.541257
1.2168
2.88256
2.19894
1.57929
1.25237
1.00167
0.794146
0.638689
0.52386
0.435041
0.394542
0.280723
0.690413
63.0007
63.6025
91.5667
158.471
177.002
51.9732
-118.385
-57.7614
-33.2883
-20.587
-13.2465
-8.69947
-5.76406
-3.78889
-2.32758
-1.03061
0.37995
1.8391
1.6528
1.28172
1.06263
0.875736
0.711396
0.58325
0.486167
0.409542
0.3747
0.264168
0.658142
48.4268
47.2469
52.1094
73.8247
61.4366
13.2353
-53.2765
-53.4995
-34.9487
-22.1372
-14.2528
-9.42498
-6.42329
-4.51508
-3.2442
-2.28523
-1.38872
-0.373412
0.778448
1.17339
0.996007
0.870433
0.742044
0.619009
0.517721
0.438421
0.374007
0.345178
0.239007
0.612818
35.3727
34.3039
33.4056
30.0984
17.1815
-0.465131
-23.6554
-24.6256
-18.4763
-12.5746
-8.52683
-5.85505
-4.08752
-2.90473
-2.06489
-1.38681
-0.746022
-0.108775
0.438659
0.761356
0.750219
0.691125
0.610538
0.523645
0.446806
0.384256
0.331685
0.308843
0.208041
0.556716
24.9329
23.7589
21.8039
17.7608
9.34959
-5.01634
-12.9934
-15.4621
-12.2985
-8.98265
-6.44779
-4.57741
-3.2464
-2.30624
-1.61352
-1.05579
-0.558531
-0.0992683
0.282712
0.51673
0.556296
0.535174
0.487445
0.428714
0.372809
0.32546
0.284258
0.267279
0.173448
0.491692
17.3119
16.0942
13.9049
9.73822
3.65793
-4.02872
-8.68288
-9.9908
-8.48875
-6.61192
-4.96625
-3.64313
-2.64324
-1.90137
-1.33385
-0.872334
-0.472676
-0.122102
0.158035
0.334719
0.389654
0.39254
0.369251
0.333192
0.295572
0.262236
0.232275
0.221211
0.137077
0.420067
12.1181
10.859
8.60808
4.82367
0.401554
-4.02795
-6.55661
-7.18288
-6.32433
-5.12862
-3.9925
-3.02942
-2.26406
-1.66897
-1.19815
-0.810242
-0.479331
-0.198085
0.0224738
0.167926
0.232455
0.253788
0.250661
0.234158
0.21331
0.193434
0.175141
0.170384
0.100143
0.344103
8.8653
7.52654
5.24405
1.97453
-1.23051
-3.92816
-5.34329
-5.60531
-5.02603
-4.20255
-3.38495
-2.66218
-2.06308
-1.57624
-1.17787
-0.84412
-0.559861
-0.32094
-0.132808
-0.0015395
0.0726314
0.110753
0.126307
0.12819
0.123813
0.117641
0.112247
0.114195
0.0639063
0.265441
7.08709
5.64308
3.35113
0.602036
-1.76547
-3.5237
-4.40121
-4.53533
-4.15508
-3.59047
-3.00223
-2.45922
-1.98781
-1.58702
-1.2463
-0.95353
-0.700722
-0.486221
-0.313239
-0.184441
-0.098377
-0.0428882
-0.00837141
0.0121516
0.0249679
0.033501
0.0427417
0.0514351
0.0286046
0.183618
6.35184
4.82546
2.62563
0.38168
-1.43648
-2.73962
-3.43747
-3.62478
-3.45634
-3.12356
-2.73571
-2.34952
-1.99063
-1.66689
-1.37746
-1.11871
-0.888497
-0.687801
-0.519687
-0.386117
-0.285906
-0.212042
-0.157862
-0.118088
-0.0872721
-0.0632581
-0.0374831
-0.0228018
-0.00461994
0.0960727
6.25803
4.75746
2.83528
1.05022
-0.444698
-1.59704
-2.33917
-2.70676
-2.78804
-2.69621
-2.51039
-2.27999
-2.03378
-1.78765
-1.54923
-1.32247
-1.11079
-0.918251
-0.749214
-0.606522
-0.490358
-0.397178
-0.322673
-0.26304
-0.213507
-0.173057
-0.128233
-0.104294
-0.017796
0.00731545
6.39924
5.15477
3.68905
2.27606
0.948499
-0.212642
-1.11108
-1.72506
-2.08428
-2.25004
-2.27872
-2.21422
-2.0894
-1.92752
-1.74455
-1.55196
-1.35885
-1.17309
-1.00133
-0.848231
-0.715925
-0.603745
-0.50957
-0.43111
-0.364071
-0.308423
-0.243692
-0.209023
-0.0325711
-0.132358
6.36609
5.66388
4.69176
3.57121
2.36571
1.18004
0.127626
-0.721828
-1.3472
-1.76612
-2.01156
-2.11938
-2.12358
-2.0531
-1.93126
-1.77678
-1.60445
-1.42658
-1.253
-1.09105
-0.944897
-0.81627
-0.704891
-0.609914
-0.527207
-0.457357
-0.376431
-0.336312
-0.12302
-0.465622
6.25419
5.9583
5.34298
4.45699
3.39162
2.24786
1.13616
0.150656
-0.653459
-1.26097
-1.68249
-1.9419
-2.06877
-2.09243
-2.03963
-1.93354
-1.79282
-1.63306
-1.46699
-1.30457
-1.15187
-1.01233
-0.886341
-0.77319
-0.667333
-0.567732
-0.455163
-0.38907
-0.188537
-0.865433
85.6897
109.491
192.195
314.495
-68.9508
-42.9587
-26.8912
-17.2015
-11.0088
-6.92136
-4.11675
-2.01598
-0.168916
1.82629
3.87435
2.66991
1.81584
1.37676
1.05823
0.810806
0.629653
0.496523
0.392778
0.34903
0.226934
0.610773
78.3653
91.7129
167.158
265.776
370.942
-71.2493
-41.1947
-25.5206
-16.2882
-10.4553
-6.61027
-3.96039
-1.96374
-0.208801
1.62568
3.30471
2.3952
1.66667
1.29116
1.01176
0.787038
0.620766
0.498403
0.404354
0.360507
0.249694
0.64846
67.5132
69.2868
121.783
186.558
227.367
-63.0764
-36.0823
-22.2766
-14.2625
-9.25412
-5.96617
-3.69453
-1.97119
-0.44911
1.11998
2.53979
1.9569
1.43845
1.15325
0.92601
0.735845
0.591926
0.484529
0.401425
0.361051
0.252709
0.636772
54.5744
53.2097
65.2259
110.512
92.8921
26.8793
-87.5244
-86.1268
-49.8355
-29.4673
-18.338
-11.8401
-7.81857
-5.20373
-3.40738
-2.04375
-0.829513
0.437065
1.66199
1.49255
1.17862
0.983989
0.812381
0.660497
0.54107
0.44973
0.377758
0.342361
0.236707
0.604702
42.1243
40.7603
41.9219
44.1698
47.8207
2.16682
-37.5542
-41.7724
-29.7061
-19.5371
-12.8085
-8.54638
-5.84217
-4.0853
-2.87941
-1.94755
-1.0893
-0.178337
0.763705
1.08034
0.923476
0.808391
0.688965
0.57439
0.479512
0.404618
0.344046
0.314207
0.212609
0.560226
31.0111
29.8583
28.617
25.8001
12.7456
-5.1941
-18.7872
-20.6411
-15.9351
-11.1415
-7.68611
-5.32143
-3.71682
-2.61447
-1.81215
-1.16025
-0.561786
0.00202829
0.45615
0.710619
0.695182
0.639552
0.564096
0.483015
0.411058
0.35205
0.302832
0.278767
0.182435
0.505113
22.088
20.9674
19.0494
14.8812
6.91687
-3.8714
-11.4803
-13.1932
-10.8598
-8.13346
-5.91555
-4.23421
-3.01286
-2.13218
-1.47225
-0.938648
-0.471248
-0.0548343
0.274255
0.472419
0.506803
0.487569
0.443706
0.389597
0.337812
0.293589
0.255515
0.237344
0.148036
0.441116
15.5102
14.4121
12.3689
8.35625
2.66746
-3.74622
-7.84871
-8.90832
-7.74448
-6.13518
-4.66011
-3.45044
-2.5196
-1.81699
-1.27323
-0.829823
-0.4501
-0.124399
0.128609
0.287866
0.340327
0.345275
0.325668
0.293819
0.260008
0.229656
0.202732
0.190704
0.111148
0.370632
11.0004
9.88541
7.83103
4.2766
0.160787
-3.7544
-6.05471
-6.60895
-5.90207
-4.84791
-3.81438
-2.92291
-2.20384
-1.63658
-1.18365
-0.809492
-0.492157
-0.225659
-0.019286
0.117648
0.181638
0.20553
0.206161
0.193705
0.176504
0.159558
0.144185
0.138818
0.0730338
0.296162
8.17847
6.99345
4.91315
1.85558
-1.14551
-3.61807
-4.96158
-5.23121
-4.74944
-4.01833
-3.27144
-2.59992
-2.03515
-1.57068
-1.18727
-0.864924
-0.590719
-0.361181
-0.180858
-0.0536489
0.0211027
0.0619845
0.0811862
0.0868884
0.0859412
0.0826369
0.0798665
0.0818336
0.0350786
0.2201
6.65593
5.36851
3.26588
0.690232
-1.54804
-3.21068
-4.07926
-4.25113
-3.9457
-3.45025
-2.91661
-2.41437
-1.9715
-1.59042
-1.26356
-0.98126
-0.736951
-0.529418
-0.361469
-0.234892
-0.148036
-0.090083
-0.0523407
-0.0283852
-0.0124387
-0.00109432
0.0104049
0.0201933
-0.00114344
0.144247
6.05818
4.68486
2.65013
0.537563
-1.19677
-2.45717
-3.16498
-3.39253
-3.28163
-3.00243
-2.65854
-2.30631
-1.97256
-1.66713
-1.39121
-1.14279
-0.920714
-0.726283
-0.562436
-0.430837
-0.330377
-0.254836
-0.198236
-0.155715
-0.122341
-0.0957536
-0.0686234
-0.0508814
-0.0371535
0.0679073
6.02628
4.66533
2.87388
1.18326
-0.251296
-1.375
-2.12262
-2.51778
-2.63825
-2.58531
-2.43343
-2.23078
-2.00645
-1.77726
-1.55201
-1.3357
-1.13242
-0.946485
-0.78223
-0.642457
-0.5275
-0.43434
-0.359254
-0.298885
-0.249092
-0.208527
-0.165977
-0.139502
-0.0739462
-0.0114819
6.18838
5.05378
3.67933
2.33439
1.05798
-0.0712515
-0.960177
-1.58214
-1.96043
-2.14912
-2.20046
-2.15645
-2.0492
-1.90201
-1.73121
-1.54876
-1.36414
-1.18536
-1.01907
-0.869946
-0.74032
-0.629925
-0.537128
-0.460091
-0.395282
-0.342216
-0.284457
-0.246863
-0.11476
-0.106892
6.17134
5.52882
4.61282
3.54236
2.38276
1.23483
0.207325
-0.630396
-1.25496
-1.68012
-1.93564
-2.05517
-2.07121
-2.01198
-1.90045
-1.75523
-1.59104
-1.42008
-1.25231
-1.09494
-0.952299
-0.8263
-0.717097
-0.624024
-0.543624
-0.475599
-0.399939
-0.349246
-0.167727
-0.262654
6.07272
5.79969
5.2161
4.36574
3.33861
2.23266
1.15346
0.192032
-0.597111
-1.19744
-1.61762
-1.87971
-2.01168
-2.04166
-1.99572
-1.8968
-1.76304
-1.60951
-1.44923
-1.29222
-1.14481
-1.01076
-0.891828
-0.788476
-0.697564
-0.618056
-0.531441
-0.475004
-0.31073
-0.552852
68.4755
71.2421
110.633
183.458
203.079
-153.868
-60.9249
-34.8354
-21.5334
-13.8666
-9.05074
-5.82397
-3.50841
-1.66972
-0.000362628
1.73767
3.268
2.27698
1.59048
1.22671
0.952635
0.737247
0.576915
0.45756
0.363785
0.32404
0.21103
0.560783
62.9972
63.4976
90.8148
157.714
175.744
45.8975
-124.371
-57.9986
-33.3276
-20.5728
-13.2262
-8.6362
-5.57511
-3.38338
-1.64659
-0.0788183
1.5044
2.77267
2.04707
1.46238
1.15258
0.911291
0.715066
0.567613
0.457607
0.372368
0.332185
0.227645
0.594864
54.5824
53.2085
65.0854
110.135
92.9331
23.7874
-87.2129
-86.3189
-49.8638
-29.4979
-18.3468
-11.8353
-7.78371
-5.09851
-3.18465
-1.67076
-0.307941
1.04663
2.13392
1.68004
1.26847
1.0332
0.835713
0.668987
0.540979
0.444165
0.368713
0.331508
0.228782
0.581415
44.5651
42.8179
43.8401
49.9521
56.5807
3.49545
-51.2617
-55.9625
-38.3875
-24.2037
-15.4293
-10.0906
-6.74064
-4.53136
-2.96921
-1.74029
-0.634413
0.469337
1.41809
1.29331
1.0457
0.884144
0.733821
0.600074
0.493597
0.411172
0.345868
0.313263
0.213222
0.5492
34.5852
33.1807
31.8233
30.5412
16.3674
-0.265511
-24.0501
-29.6193
-23.3007
-16.2287
-10.9839
-7.46682
-5.15689
-3.60849
-2.50552
-1.62805
-0.828263
-0.0336794
0.694658
0.945775
0.822059
0.725512
0.620523
0.519619
0.435225
0.367943
0.313349
0.286145
0.190403
0.505507
25.7332
24.5877
22.7897
19.1694
9.43025
-4.46819
-14.2151
-15.9664
-12.9935
-9.48667
-6.72133
-4.72895
-3.32986
-2.33652
-1.59231
-0.982112
-0.4365
0.0510739
0.420531
0.624301
0.614533
0.568171
0.502767
0.432204
0.369029
0.31682
0.273228
0.251911
0.161843
0.45186
18.5893
17.5775
15.6928
11.7094
4.8032
-3.526
-9.42161
-10.7798
-9.22795
-7.13001
-5.29283
-3.84706
-2.76606
-1.96534
-1.35201
-0.852015
-0.420466
-0.0488291
0.230738
0.400096
0.434614
0.42179
0.386169
0.340941
0.297057
0.259309
0.226827
0.211798
0.129243
0.390133
13.2648
12.3283
10.5018
6.8255
1.81303
-3.41911
-6.80241
-7.67944
-6.845
-5.54343
-4.28381
-3.22139
-2.38322
-1.73547
-1.22585
-0.807508
-0.452251
-0.153603
0.0729926
0.217416
0.271001
0.281906
0.269917
0.246252
0.220021
0.196183
0.175035
0.166785
0.094364
0.322927
9.59348
8.66175
6.87369
3.65339
-0.0127498
-3.37056
-5.37828
-5.88862
-5.35893
-4.48294
-3.58566
-2.79103
-2.13591
-1.60849
-1.1812
-0.825919
-0.525384
-0.27519
-0.0827209
0.0474435
0.113835
0.143699
0.151727
0.147165
0.137484
0.127296
0.117969
0.117228
0.058469
0.253065
7.3059
6.3142
4.50174
1.7339
-0.984807
-3.19641
-4.43902
-4.73486
-4.37734
-3.76859
-3.11831
-2.51792
-2.00156
-1.56913
-1.20696
-0.900042
-0.638296
-0.419215
-0.246463
-0.121894
-0.0441283
0.00253498
0.028808
0.0421178
0.0486293
0.0523585
0.0558677
0.0635639
0.0229946
0.183552
6.10152
5.01147
3.15948
0.817936
-1.24277
-2.78706
-3.63855
-3.86376
-3.65603
-3.25392
-2.79569
-2.35041
-1.94803
-1.59496
-1.28752
-1.01927
-0.785594
-0.586
-0.422984
-0.297548
-0.207929
-0.144887
-0.100752
-0.0696725
-0.0464485
-0.027755
-0.0097605
0.00765573
-0.00957243
0.118072
5.67322
4.49408
2.67954
0.745081
-0.873034
-2.07565
-2.79213
-3.07221
-3.03681
-2.83013
-2.54688
-2.24201
-1.94362
-1.6639
-1.40664
-1.172
-0.960175
-0.773049
-0.613533
-0.483072
-0.380689
-0.301084
-0.238953
-0.189806
-0.149145
-0.11441
-0.0800837
-0.0514886
-0.0385764
0.0596314
5.71485
4.53195
2.91679
1.35596
0.00596385
-1.07615
-1.82677
-2.25627
-2.42772
-2.42706
-2.32166
-2.15745
-1.96357
-1.75788
-1.55064
-1.34818
-1.15547
-0.977268
-0.817968
-0.680334
-0.564859
-0.469045
-0.389564
-0.323167
-0.265966
-0.216003
-0.165381
-0.124119
-0.0716203
0.00565661
5.89983
4.90559
3.65537
2.40488
1.20011
0.117083
-0.755203
-1.38496
-1.78697
-2.00584
-2.08781
-2.07189
-1.98895
-1.86204
-1.70788
-1.53894
-1.36518
-1.19484
-1.03462
-0.889178
-0.760897
-0.649659
-0.553992
-0.471891
-0.400005
-0.336717
-0.270942
-0.21503
-0.116362
-0.0521607
5.90124
5.33686
4.49689
3.49573
2.39999
1.30535
0.314238
-0.505191
-1.12678
-1.55926
-1.82791
-1.9632
-1.99539
-1.9515
-1.85391
-1.72082
-1.56695
-1.40443
-1.24311
-1.09009
-0.949632
-0.823537
-0.711771
-0.613203
-0.524457
-0.443506
-0.356975
-0.277479
-0.136328
-0.0920948
5.82067
5.57823
5.03709
4.2359
3.262
2.20878
1.17531
0.24814
-0.51936
-1.10902
-1.52687
-1.79233
-1.93108
-1.96981
-1.93319
-1.84319
-1.71778
-1.57165
-1.41747
-1.26496
-1.1204
-0.987205
-0.866744
-0.75874
-0.660054
-0.568085
-0.468979
-0.377486
-0.224436
-0.201964
52.577
51.4793
60.1396
86.6749
71.5643
14.5788
-55.6233
-60.7381
-37.742
-23.4276
-14.9485
-9.80122
-6.50525
-4.22104
-2.46628
-0.958482
0.45185
1.73641
2.31401
1.84204
1.33303
1.05524
0.831752
0.652816
0.516451
0.413252
0.331014
0.296407
0.193012
0.506444
48.5485
47.4819
52.5594
75.9012
60.8535
13.1546
-50.8734
-53.8668
-35.1432
-22.1963
-14.2623
-9.37526
-6.23895
-4.07724
-2.43364
-1.0367
0.256084
1.4195
2.00235
1.66684
1.22918
0.993221
0.795551
0.632206
0.506735
0.411533
0.33675
0.301694
0.20443
0.537607
42.1918
40.8767
42.1498
44.4297
48.0947
2.15762
-37.5232
-41.8934
-29.7878
-19.5843
-12.8339
-8.53227
-5.73989
-3.81856
-2.37054
-1.15103
-0.0285525
0.977529
1.54798
1.37926
1.07251
0.893069
0.73027
0.59108
0.48201
0.398186
0.332033
0.299628
0.203873
0.522755
34.6173
33.2351
31.9192
30.6511
16.462
-0.255414
-24.0542
-29.6555
-23.3397
-16.2619
-11.0128
-7.47914
-5.12943
-3.50499
-2.28947
-1.27566
-0.345367
0.496038
1.04923
1.07168
0.8879
0.764822
0.640244
0.528402
0.43776
0.366604
0.30961
0.281523
0.188749
0.490665
27.1089
25.9276
24.0604
20.5749
10.3517
-1.60777
-14.8135
-19.4632
-16.8539
-12.6086
-8.94319
-6.2615
-4.39994
-3.09342
-2.12121
-1.32537
-0.60981
0.0397424
0.537614
0.787269
0.697205
0.623991
0.537311
0.453471
0.382262
0.324846
0.277834
0.255065
0.167109
0.448129
20.443
19.469
17.6458
13.7882
6.20663
-3.99151
-10.364
-11.8653
-10.1748
-7.77553
-5.68705
-4.08603
-2.91076
-2.04524
-1.37924
-0.830811
-0.355063
0.0472947
0.333647
0.510617
0.513
0.479129
0.427083
0.370009
0.318067
0.274763
0.238337
0.221623
0.140049
0.396492
15.0161
14.1924
12.5202
8.84398
3.20649
-3.21525
-7.45881
-8.59446
-7.63654
-6.10066
-4.64591
-3.44787
-2.51835
-1.80684
-1.2489
-0.790463
-0.400858
-0.0765345
0.156463
0.304566
0.343176
0.339509
0.314833
0.280961
0.247133
0.217783
0.192343
0.18234
0.109077
0.337686
10.9344
10.1968
8.66194
5.38846
1.16972
-3.04077
-5.70778
-6.46541
-5.91037
-4.90731
-3.87709
-2.97539
-2.24187
-1.65836
-1.1901
-0.80257
-0.475775
-0.205892
-0.00456987
0.127193
0.184191
0.203204
0.200921
0.187427
0.170598
0.154968
0.140916
0.138319
0.0758486
0.274376
8.11364
7.38731
5.90361
3.06634
-0.0984032
-2.92307
-4.62677
-5.11547
-4.75922
-4.07101
-3.32572
-2.64238
-2.06222
-1.58345
-1.18808
-0.856267
-0.575541
-0.34307
-0.164253
-0.0398538
0.0303476
0.0676744
0.0846196
0.0894622
0.0887434
0.0866882
0.084523
0.0901331
0.0415636
0.209438
6.37544
5.59507
4.07872
1.64033
-0.761112
-2.70711
-3.8393
-4.17206
-3.94638
-3.4735
-2.93491
-2.41868
-1.96114
-1.56851
-1.23325
-0.945746
-0.699074
-0.491859
-0.32698
-0.204714
-0.123212
-0.0698699
-0.0355467
-0.0136367
0.00127408
0.0129207
0.0233907
0.0381704
0.00715875
0.145854
5.49855
4.62408
3.05014
0.975388
-0.881329
-2.29696
-3.12564
-3.41099
-3.31039
-3.01453
-2.64497
-2.26809
-1.9155
-1.59752
-1.31475
-1.06431
-0.843842
-0.653789
-0.496491
-0.372451
-0.279979
-0.211575
-0.160717
-0.122249
-0.0916353
-0.0656931
-0.0414185
-0.016262
-0.0256601
0.0871739
5.24206
4.27644
2.70949
0.979833
-0.50187
-1.63604
-2.35677
-2.6933
-2.74127
-2.6176
-2.40579
-2.15792
-1.90294
-1.65533
-1.42167
-1.20447
-1.0056
-0.827701
-0.673826
-0.54538
-0.441682
-0.358505
-0.291399
-0.236447
-0.189775
-0.148728
-0.109233
-0.0720484
-0.0552309
0.0373743
5.35445
4.36905
2.95487
1.54516
0.296152
-0.733667
-1.48195
-1.94645
-2.17348
-2.23219
-2.18117
-2.0629
-1.90611
-1.72947
-1.54473
-1.35966
-1.18029
-1.01195
-0.859225
-0.724978
-0.610011
-0.512525
-0.429816
-0.359043
-0.296866
-0.24099
-0.185996
-0.135337
-0.087281
-0.00396697
5.55861
4.72122
3.61409
2.47471
1.35599
0.330553
-0.517574
-1.15202
-1.57831
-1.83055
-1.94777
-1.96504
-1.91138
-1.80932
-1.67584
-1.52392
-1.36396
-1.20449
-1.05234
-0.912225
-0.786717
-0.67608
-0.579242
-0.49438
-0.418647
-0.349855
-0.281003
-0.216306
-0.135212
-0.046384
5.57855
5.10171
4.34984
3.43067
2.4115
1.38183
0.43656
-0.358209
-0.973571
-1.41278
-1.6959
-1.84949
-1.90108
-1.87594
-1.79562
-1.67796
-1.53763
-1.38661
-1.23455
-1.08849
-0.952853
-0.829622
-0.71902
-0.620118
-0.530292
-0.44712
-0.362384
-0.278963
-0.167936
-0.073926
5.51762
5.30978
4.8182
4.07559
3.16567
2.17616
1.1985
0.313702
-0.426458
-1.00216
-1.41642
-1.68559
-1.83261
-1.88215
-1.85734
-1.77889
-1.66454
-1.52876
-1.38343
-1.23792
-1.09854
-0.968802
-0.850067
-0.742287
-0.643298
-0.550412
-0.455323
-0.359753
-0.234324
-0.129523
38.2159
37.3125
37.2381
35.3666
21.2339
-0.883833
-26.4885
-27.5071
-20.1765
-13.4344
-8.98573
-6.03429
-3.99586
-2.50609
-1.32376
-0.311678
0.566657
1.22851
1.43178
1.29722
1.05383
0.866508
0.700051
0.560576
0.449857
0.364215
0.294492
0.265687
0.172279
0.447532
35.4727
34.4773
33.6982
30.1689
17.6716
-0.389357
-23.5892
-24.7133
-18.5067
-12.5576
-8.46566
-5.71323
-3.80312
-2.40692
-1.30328
-0.363592
0.448874
1.06319
1.28051
1.17745
0.977879
0.817785
0.668928
0.541519
0.439751
0.360823
0.297546
0.26847
0.178926
0.476725
31.068
29.9348
28.724
25.7169
12.9065
-5.18448
-18.7626
-20.6747
-15.9475
-11.1325
-7.6503
-5.23269
-3.53328
-2.28873
-1.30981
-0.481745
0.232217
0.780595
1.02209
0.996385
0.86083
0.736963
0.613851
0.505217
0.416855
0.347558
0.291806
0.26514
0.176937
0.461052
25.7629
24.6249
22.8333
19.1386
9.50335
-4.45572
-14.2014
-15.9785
-12.9993
-9.48347
-6.70331
-4.68038
-3.22719
-2.15354
-1.31001
-0.600401
0.0109835
0.492175
0.754032
0.790788
0.715296
0.6295
0.535508
0.448498
0.375513
0.317214
0.269672
0.247106
0.162283
0.429605
20.451
19.4769
17.6519
13.7702
6.22531
-3.98676
-10.3588
-11.8688
-10.1768
-7.77366
-5.67772
-4.06212
-2.86218
-1.9608
-1.25054
-0.657083
-0.149198
0.257825
0.517433
0.584877
0.557134
0.507324
0.443133
0.378979
0.322756
0.276775
0.238484
0.221171
0.141776
0.388825
15.6815
14.898
13.2767
9.59534
3.66721
-3.4022
-7.70349
-8.84168
-7.82778
-6.19872
-4.67296
-3.43369
-2.47816
-1.74501
-1.16591
-0.687789
-0.284636
0.0406739
0.261486
0.376767
0.394271
0.376901
0.341195
0.29966
0.260612
0.227686
0.199506
0.188394
0.116161
0.339907
11.7559
11.1224
9.72849
6.44421
1.89738
-2.90464
-5.91628
-6.79578
-6.20632
-5.11252
-4.00048
-3.03894
-2.26245
-1.64644
-1.15233
-0.743811
-0.401558
-0.124193
0.0737599
0.194577
0.23797
0.245887
0.234166
0.213288
0.190953
0.171304
0.153871
0.149819
0.0867498
0.284777
8.78315
8.23591
6.99623
4.15148
0.667862
-2.65554
-4.72727
-5.37485
-5.02697
-4.28221
-3.46917
-2.72712
-2.10118
-1.58745
-1.1656
-0.813114
-0.516875
-0.274931
-0.0946052
0.0249877
0.0862747
0.11482
0.123637
0.121563
0.115285
0.108936
0.102797
0.106638
0.055098
0.226047
6.73337
6.20138
5.00925
2.56419
-0.116294
-2.45778
-3.89075
-4.36404
-4.15761
-3.64611
-3.05273
-2.48505
-1.98535
-1.56083
-1.20193
-0.896834
-0.637533
-0.422665
-0.255928
-0.136683
-0.0620323
-0.0163776
0.0103909
0.0255074
0.0345902
0.0414925
0.047146
0.0597242
0.0224319
0.166549
5.49622
4.91712
3.68516
1.58158
-0.502012
-2.19465
-3.22163
-3.59177
-3.49034
-3.15285
-2.73075
-2.30495
-1.91276
-1.56547
-1.26158
-0.996613
-0.766831
-0.572094
-0.414758
-0.294539
-0.208988
-0.148514
-0.105616
-0.07456
-0.0506765
-0.0305247
-0.0125389
0.00963641
-0.0104003
0.10914
4.91579
4.24928
2.94802
1.14632
-0.499374
-1.78392
-2.58554
-2.92856
-2.93273
-2.74566
-2.4704
-2.16827
-1.87161
-1.59396
-1.34004
-1.11041
-0.905091
-0.725601
-0.574344
-0.451799
-0.356435
-0.282491
-0.224647
-0.178476
-0.140095
-0.106509
-0.075514
-0.0427723
-0.0424156
0.0568415
4.80999
4.05318
2.73465
1.21762
-0.118827
-1.1774
-1.8955
-2.2846
-2.4146
-2.37637
-2.24068
-2.05522
-1.84891
-1.63802
-1.43169
-1.23479
-1.05085
-0.883459
-0.735956
-0.609968
-0.505209
-0.418569
-0.346511
-0.285729
-0.232973
-0.18565
-0.140836
-0.0963143
-0.0722847
0.0130568
4.97824
4.18835
2.97978
1.72954
0.590496
-0.378712
-1.11725
-1.61197
-1.89263
-2.01178
-2.01818
-1.94982
-1.8342
-1.69039
-1.53139
-1.3663
-1.20221
-1.04512
-0.899949
-0.769799
-0.655875
-0.557127
-0.471548
-0.39679
-0.330112
-0.269172
-0.210197
-0.152653
-0.101684
-0.0208761
5.19239
4.51162
3.55288
2.53224
1.50791
0.54831
-0.268225
-0.901877
-1.34936
-1.63433
-1.78801
-1.84076
-1.81916
-1.74474
-1.63449
-1.50174
-1.35725
-1.20983
-1.06648
-0.932122
-0.809587
-0.699607
-0.601567
-0.513999
-0.434616
-0.361148
-0.288902
-0.217868
-0.139575
-0.0516831
5.22719
4.83823
4.17847
3.34751
2.41222
1.4551
0.562799
-0.201455
-0.806526
-1.25034
-1.54749
-1.72014
-1.79262
-1.78811
-1.72702
-1.62664
-1.50137
-1.36298
-1.22093
-1.08226
-0.951573
-0.831127
-0.721434
-0.621827
-0.530272
-0.444399
-0.358717
-0.272461
-0.16982
-0.0728454
5.18506
5.01221
4.57298
3.89391
3.05421
2.13515
1.21991
0.383275
-0.325063
-0.883843
-1.29304
-1.56565
-1.72153
-1.78292
-1.77126
-1.706
-1.60412
-1.47964
-1.34392
-1.20594
-1.07206
-0.945948
-0.829143
-0.721792
-0.622285
-0.528292
-0.434096
-0.338152
-0.220416
-0.110863
26.7447
25.582
23.7806
20.0488
11.4988
-5.11283
-14.1526
-16.9892
-13.154
-9.4613
-6.70446
-4.64627
-3.13236
-1.99236
-1.08447
-0.324808
0.310603
0.788734
0.978888
0.938112
0.815067
0.690075
0.570627
0.46609
0.379863
0.311826
0.254958
0.232295
0.149181
0.384767
24.9719
23.8011
21.8141
17.6508
9.53067
-4.99855
-12.948
-15.4739
-12.2768
-8.92961
-6.35777
-4.42701
-3.00035
-1.92529
-1.07229
-0.362261
0.229164
0.674671
0.868318
0.853697
0.75802
0.650427
0.543514
0.448417
0.369494
0.307083
0.255757
0.233083
0.151713
0.412642
22.1142
20.9919
19.0611
14.7827
6.99885
-3.8566
-11.4481
-13.1901
-10.8379
-8.0915
-5.84724
-4.1221
-2.83177
-1.8546
-1.08054
-0.438889
0.0948076
0.501095
0.701224
0.728053
0.667113
0.584448
0.496778
0.416273
0.348281
0.294001
0.249225
0.228816
0.14869
0.396922
18.6041
17.5913
15.7016
11.666
4.85113
-3.51162
-9.40014
-10.7712
-9.20889
-7.0975
-5.24178
-3.76624
-2.64
-1.77792
-1.09357
-0.527599
-0.0565914
0.307256
0.5106
0.574462
0.548274
0.493334
0.428016
0.364683
0.309555
0.264832
0.227439
0.210981
0.134666
0.366821
15.0208
14.1955
12.5206
8.82507
3.22536
-3.20688
-7.44649
-8.58572
-7.62174
-6.07742
-4.61104
-3.39557
-2.44107
-1.69727
-1.10322
-0.612204
-0.203921
0.115704
0.315979
0.408297
0.413533
0.386342
0.344615
0.300066
0.259425
0.22574
0.196932
0.185687
0.115393
0.328533
11.7564
11.1221
9.72762
6.43882
1.90283
-2.90079
-5.91047
-6.78971
-6.19716
-5.09919
-3.98168
-3.01267
-2.22632
-1.5984
-1.09174
-0.672569
-0.324911
-0.0501757
0.136356
0.237625
0.269828
0.268853
0.250285
0.224889
0.199535
0.177876
0.158698
0.153761
0.0913533
0.283112
9.0424
8.55774
7.40698
4.56566
0.97177
-2.54556
-4.75548
-5.46597
-5.12069
-4.35198
-3.51072
-2.74328
-2.09565
-1.56319
-1.1256
-0.760634
-0.456344
-0.212202
-0.0363483
0.0735024
0.125927
0.146647
0.148847
0.141737
0.131691
0.122553
0.113811
0.116172
0.0636845
0.23242
6.97951
6.58342
5.5838
3.15755
0.323664
-2.26279
-3.88905
-4.45916
-4.27235
-3.74207
-3.11801
-2.51986
-1.99374
-1.54754
-1.17147
-0.853127
-0.584602
-0.365187
-0.199249
-0.0850095
-0.0169799
0.0220694
0.0427603
0.0527716
0.0576988
0.0612853
0.0636135
0.0741761
0.0338386
0.178926
5.56851
5.19502
4.24139
2.16438
-0.0761701
-1.99969
-3.20977
-3.67458
-3.59585
-3.24287
-2.79134
-2.33494
-1.91573
-1.54701
-1.2266
-0.94937
-0.71126
-0.512174
-0.354727
-0.237819
-0.157677
-0.103162
-0.0660874
-0.0402457
-0.0208987
-0.0045808
0.00930431
0.0288933
0.00309021
0.125305
4.74555
4.33589
3.34536
1.5548
-0.230782
-1.69261
-2.62479
-3.02829
-3.03767
-2.82694
-2.51829
-2.18327
-1.85895
-1.56003
-1.29035
-1.0499
-0.837933
-0.655543
-0.504954
-0.385919
-0.296024
-0.228237
-0.176545
-0.13609
-0.102939
-0.0739897
-0.0481631
-0.0188
-0.0275995
0.0742467
4.40512
3.91883
2.85907
1.31559
-0.126224
-1.28311
-2.05375
-2.44608
-2.54539
-2.46204
-2.28025
-2.05453
-1.81671
-1.58261
-1.36043
-1.15381
-0.965014
-0.796717
-0.651628
-0.530544
-0.432349
-0.352882
-0.287969
-0.233933
-0.187544
-0.146076
-0.107965
-0.0681283
-0.0574674
0.0283597
4.41337
3.84189
2.75148
1.43931
0.247474
-0.731794
-1.43921
-1.87178
-2.07601
-2.11925
-2.05903
-1.93742
-1.78222
-1.61083
-1.43438
-1.2598
-1.09226
-0.936281
-0.795656
-0.672419
-0.566802
-0.476773
-0.399701
-0.332919
-0.273791
-0.21992
-0.169211
-0.118172
-0.0856921
-0.00977226
4.61459
4.0014
2.98678
1.89329
0.866342
-0.0368389
-0.757634
-1.27439
-1.60208
-1.77797
-1.84065
-1.82287
-1.7501
-1.64119
-1.50996
-1.36661
-1.2192
-1.07438
-0.937463
-0.81192
-0.699407
-0.599622
-0.511267
-0.432537
-0.36129
-0.295344
-0.232
-0.169141
-0.112818
-0.0388112
4.82604
4.28867
3.4724
2.57024
1.64294
0.753958
-0.0245751
-0.650841
-1.11402
-1.42817
-1.61667
-1.70477
-1.71604
-1.67062
-1.58512
-1.47299
-1.34527
-1.21099
-1.07737
-0.949549
-0.830677
-0.721962
-0.623289
-0.533619
-0.451201
-0.373985
-0.298567
-0.223703
-0.143408
-0.0627759
4.86964
4.56147
3.99105
3.24876
2.39954