/*--------------------------------*- C++ -*----------------------------------*\
  =========                 |
  \\      /  F ield         | OpenFOAM: The Open Source CFD Toolbox
   \\    /   O peration     | Website:  https://openfoam.org
    \\  /    A nd           | Version:  10
     \\/     M anipulation  |
\*---------------------------------------------------------------------------*/
FoamFile
{
    format      ascii;
    class       surfaceScalarField;
    location    "300";
    object      phi;
}
// * * * * * * * * * * * * * * * * * * * * * * * * * * * * * * * * * * * * * //

dimensions      [0 3 -1 0 0 0 0];

internalField   nonuniform List<scalar> 
81522
(
525.509
8.66355
8.65384
113.533
32.0271
31.9808
115.398
115.437
117.134
94.0529
9.70442
9.77571
-14.8838
3.26414
3.27145
2.04052
2.10872
2.10928
2.08973
1.14383
-0.677438
-0.780231
0.313835
-6.52577
-1.01674
-1.07888
8.6214
-14.1698
15.7457
-0.772765
-0.803166
-19.7318
20.8454
-0.550862
-0.56266
-23.6736
24.4736
-0.407137
-0.3928
-26.5403
27.1358
-0.323079
-0.272482
-28.6981
29.1535
-0.273524
-0.181804
-30.3484
30.6928
-0.236892
-0.10748
-31.565
31.7994
-0.192529
-0.0418858
-32.2928
129.827
-0.858825
-0.0151856
-32.2367
-32.2377
-32.1846
525.37
-3.91676
-0.463646
-130.466
-130.23
-130.254
-130.037
528.759
-2.97316
-0.41384
531.513
-2.42194
-0.331975
533.832
-2.08236
-0.235446
535.836
-1.86537
-0.138698
537.61
-1.72769
-0.0464705
539.215
-1.64603
0.0409745
540.699
-1.60669
0.123218
542.082
-1.59168
0.208485
543.412
-1.60548
0.275652
-1.5722
0.392715
530.003
14.3371
7.51233
118.765
50.4918
26.8564
122.374
120.191
123.352
-17.8743
104.801
23.5858
8.25287
-11.2744
-19.7671
13.0654
2.76995
3.87591
3.73604
3.67762
3.91652
-2.79131
3.61666
-4.99301
-0.922419
5.09007
-11.3618
3.88576
-0.969914
-4.66069
13.1067
2.80964
-17.4482
18.6507
-3.31332
-0.698784
2.00123
-21.7007
22.5632
-2.36923
-0.494547
1.4913
-24.7916
25.4334
-1.77865
-0.354502
1.18939
-27.1181
27.6107
-1.42673
-0.255289
1.00786
-28.9178
29.3027
-1.21308
-0.179685
0.873167
-30.322
30.6188
-1.05349
-0.116455
0.717324
-31.3827
31.5946
-0.870136
-0.059103
-32.0891
1.74664
129.205
-2.56181
-0.144237
-32.0742
-32.0462
-32.0343
524.027
-7.7148
-0.96832
-129.945
-129.833
-129.779
-129.697
527.641
-5.84515
-0.739185
530.526
-4.74136
-0.563687
532.916
-4.05334
-0.417506
534.952
-3.60907
-0.292227
536.729
-3.32154
-0.183449
538.314
-3.14456
-0.0869215
539.758
-3.05006
4.08658e-05
541.093
-3.01164
0.0851719
542.344
-3.01441
0.157422
-2.98273
0.233574
535.716
16.4932
5.97402
126.16
54.4069
19.9349
129.159
126.883
129.664
-26.2552
119.695
26.8847
5.83566
-14.8584
-27.2565
25.68
14.6808
1.75414
-0.815121
0.542554
0.405399
-0.132881
-16.8564
8.34438
-8.53244
-0.985058
18.0296
5.85017
-20.5662
-0.687729
21.2681
-5.86435
4.13728
-23.1439
23.7098
-4.20433
-0.498825
3.05305
-25.2573
25.7276
-3.15216
-0.371294
2.37006
-27.0175
27.4101
-2.48088
-0.281707
1.94957
-28.486
28.813
-2.06123
-0.215361
1.68414
-29.7067
29.9768
-1.79201
-0.162244
1.47917
-30.7072
30.9244
-1.58103
-0.1153
1.24406
-31.4964
31.6603
-1.33778
-0.0700998
-32.0642
3.26723
129.049
-3.83125
-0.262255
-32.0755
-32.0341
-32.0485
523.427
-10.8012
-1.47032
-129.75
-129.774
-129.644
-129.698
527.03
-8.36435
-1.08108
529.937
-6.83951
-0.807921
532.337
-5.84841
-0.60421
534.363
-5.19002
-0.444903
536.111
-4.75407
-0.315918
537.653
-4.47852
-0.207618
539.042
-4.32423
-0.114282
540.315
-4.2584
-0.0263364
541.507
-4.25361
0.0475608
-4.21999
0.112645
540.793
16.2636
4.5679
530.572
50.3743
14.2543
129.484
97.9038
28.7328
-26.3668
-35.7447
-25.55
-34.408
132.954
130.195
133.372
-53.1802
130.866
44.5214
7.27589
-22.9772
-33.8885
35.8783
19.2342
1.75325
-3.84845
0.723745
3.65068
-0.524548
-2.49891
2.87702
-2.36035
1.98155
11.452
-28.2915
27.7188
-10.0445
-0.834801
7.31561
-27.0267
-0.558053
26.9694
-6.70035
5.25255
-27.0868
27.1925
-4.9481
-0.410238
4.00507
-27.6276
27.7994
-3.85659
-0.320209
3.16915
-28.3631
28.5596
-3.1085
-0.257135
2.60549
-29.1559
29.3528
-2.59249
-0.209923
2.23292
-29.9276
30.1115
-2.24411
-0.172654
1.97987
-30.6342
30.7972
-2.00224
-0.140733
1.7706
-31.2501
31.3877
-1.79804
-0.110181
1.52352
-31.7593
31.8683
-1.55465
-0.0779218
-32.1556
4.25281
129.283
-4.53779
-0.357226
-32.1811
-32.138
-32.1665
523.825
-12.9791
-1.85509
-129.895
-130.034
-129.848
-130.013
527.163
-10.3412
-1.36094
529.921
-8.57902
-1.0178
532.217
-7.3739
-0.769883
534.154
-6.54451
-0.583053
535.819
-5.98137
-0.437178
537.277
-5.61769
-0.318896
538.583
-5.40898
-0.220254
539.774
-5.31886
-0.13041
540.888
-5.31173
-0.0553355
-5.27842
0.0025402
544.461
14.6367
3.35995
541.747
43.2387
9.84987
546.253
75.7638
17.6339
142.361
109.326
6.91562
-37.0503
-43.5041
-35.622
-41.7468
141.827
142.32
141.801
7.98839
5.66308
5.97304
-49.1575
148.512
38.0699
4.93661
-11.0434
-39.3809
40.5637
0.620469
9.24005
-0.807174
-42.4578
41.7292
0.0610307
1.47465
6.12313
-37.5653
140.847
-13.915
-2.18632
6.41488
5.99497
6.31834
-37.5943
-37.2244
-37.2129
6.09604
-134.021
129.48
-16.8639
-2.31054
6.01984
5.83256
5.76634
4.89088
-126.455
124.632
-15.2186
-1.98945
4.66678
4.84491
4.62823
3.96738
-123.494
122.901
-13.2288
-1.68621
3.81542
3.9374
3.78714
3.30406
-122.641
122.668
-11.5237
-1.45076
3.19258
3.28041
3.17001
2.80675
-122.88
123.248
-10.1213
-1.2664
2.72449
2.7851
2.7028
2.43683
-123.721
124.269
-9.01368
-1.11761
2.37756
2.41381
2.35373
2.16821
-124.865
125.48
-8.15974
-0.991401
2.12601
2.14156
2.09818
1.96646
-126.103
126.709
-7.46985
-0.872862
1.93258
1.93543
1.90049
1.78317
-127.297
127.846
-6.79588
-0.744913
1.74628
1.74885
1.71152
1.55788
-128.369
128.85
-5.94848
-0.592735
1.50508
1.52354
1.47175
4.70386
-129.331
129.828
-4.78954
-0.411983
525.262
-14.2212
-2.04559
-130.353
-130.622
-130.355
-130.645
528.126
-11.6804
-1.52525
530.56
-9.85371
-1.15869
532.621
-8.54233
-0.893361
534.378
-7.60648
-0.694316
535.892
-6.95461
-0.540597
537.218
-6.52583
-0.417968
538.404
-6.27692
-0.317743
539.487
-6.17168
-0.228704
540.5
-6.17055
-0.154128
-6.14295
-0.104409
546.67
12.3716
2.40885
547.392
35.6591
6.85755
552.718
59.0009
11.4362
567.703
78.6144
15.726
147.626
81.0405
15.9376
-30.1436
-28.6991
-29.2896
-27.893
145.92
147.418
145.787
-23.4945
149.942
19.2935
1.8853
-6.54198
-150.435
148.925
7.43212
0.620161
557.618
-7.36486
-3.05945
7.3967
9.75673
6.86146
9.23429
-145.814
-144.544
-145.658
-144.429
539.422
-22.301
-5.58926
11.7516
11.7357
11.2619
11.3367
527.893
-28.3982
-6.25407
11.9539
11.4647
11.5951
11.1667
521.284
-30.0648
-6.22352
11.1081
10.5909
10.8402
10.3564
517.944
-29.75
-5.95061
10.0903
9.63591
9.87528
9.43664
516.763
-28.6536
-5.60886
9.14077
8.76385
8.95179
8.58348
516.953
-27.3011
-5.25709
8.3295
8.03078
8.15079
7.85245
517.957
-25.9101
-4.89578
7.66138
7.42026
7.47949
7.23426
519.382
-24.4316
-4.49294
7.08331
6.85654
6.89159
6.66102
521.022
-22.653
-3.9996
6.48607
6.21392
6.28736
6.01775
522.917
-20.3267
-3.3838
5.72901
5.35634
5.53956
5.18444
525.177
-17.477
-2.68709
4.73657
4.34779
4.59051
4.22493
527.614
-14.6227
-2.03628
529.847
-12.35
-1.5639
531.823
-10.6089
-1.22063
533.543
-9.29689
-0.965859
535.036
-8.32675
-0.771942
536.337
-7.63413
-0.621416
537.484
-7.17135
-0.501737
538.515
-6.90239
-0.404996
539.46
-6.79524
-0.320537
540.35
-6.81118
-0.248968
-6.79813
-0.209968
547.823
9.98494
1.69219
550.114
28.6157
4.75138
555.532
45.9685
7.61475
565.241
59.0409
9.86417
575.842
60.5439
9.89613
579.523
46.9474
7.22654
-16.3046
-12.8395
-16.0318
-12.6793
573.653
25.3537
3.41783
-7.5278
-3.89195
-7.50392
-3.97853
561.631
4.80894
-0.152174
550.136
-8.60446
-2.2011
541.199
-16.2412
-3.22111
534.964
-20.165
-3.66496
530.923
-21.9061
-3.80471
528.514
-22.4528
-3.793
527.258
-22.3416
-3.70522
526.78
-21.8702
-3.56519
526.815
-21.1014
-3.36834
527.223
-19.9686
-3.09454
527.997
-18.3743
-2.72951
529.177
-16.3625
-2.2952
530.652
-14.2379
-1.86058
532.17
-12.3694
-1.49891
533.607
-10.833
-1.21339
534.917
-9.61577
-0.990771
536.088
-8.68157
-0.816388
537.131
-7.99749
-0.678923
538.063
-7.534
-0.569156
538.909
-7.26704
-0.481007
539.692
-7.17238
-0.405159
540.439
-7.21776
-0.339521
-7.23066
-0.314481
548.301
7.76025
1.17103
551.121
22.5154
3.28006
556.036
35.9037
5.14962
563.061
45.5322
6.48438
569.906
47.1415
6.55738
572.699
38.991
5.16332
569.941
25.0782
3.03344
563.263
10.5879
0.898583
555.778
-0.518388
-0.600935
549.154
-8.06768
-1.55001
543.897
-12.8034
-2.10494
539.992
-15.5957
-2.4065
537.203
-17.1099
-2.55452
535.3
-17.8309
-2.60881
534.048
-18.0238
-2.59658
533.28
-17.8105
-2.52456
532.904
-17.2061
-2.38742
532.903
-16.1944
-2.18076
533.287
-14.8296
-1.91749
533.988
-13.3027
-1.6365
534.849
-11.8509
-1.37916
535.754
-10.5788
-1.15997
536.639
-9.52026
-0.979738
537.468
-8.67663
-0.833518
538.229
-8.04278
-0.71591
538.925
-7.60808
-0.621339
539.567
-7.36289
-0.54599
540.171
-7.29312
-0.482322
540.759
-7.37952
-0.425573
-7.4304
-0.417869
548.371
5.84727
0.803639
551.204
17.4098
2.27256
555.499
28.0523
3.55649
560.925
35.6679
4.43886
565.947
37.5569
4.5616
568.4
32.7239
3.8142
567.419
23.4834
2.57559
563.695
13.0757
1.23658
558.887
4.12983
0.159481
554.107
-2.66458
-0.62328
549.909
-7.45115
-1.15511
546.455
-10.6429
-1.49869
543.724
-12.6669
-1.71307
541.612
-13.8805
-1.83829
540
-14.5152
-1.8975
538.793
-14.7037
-1.90052
537.936
-14.5016
-1.84871
537.418
-13.9342
-1.74253
537.239
-13.0594
-1.59065
537.357
-12.0058
-1.41542
537.678
-10.9302
-1.24149
538.114
-9.93154
-1.08325
538.602
-9.06084
-0.946396
539.098
-8.34089
-0.83135
539.578
-7.78619
-0.736931
540.033
-7.40199
-0.660658
540.465
-7.19306
-0.600865
540.88
-7.1559
-0.552102
541.3
-7.29173
-0.506771
-7.3906
-0.519751
548.245
4.24936
0.55119
550.828
13.2343
1.59245
554.538
21.8262
2.51664
558.963
28.0873
3.15565
563.048
30.1596
3.31199
565.451
27.4036
2.91696
565.561
21.2038
2.17007
563.68
13.6558
1.30017
560.687
6.60027
0.52309
557.343
0.778342
-0.0995554
554.113
-3.65431
-0.566624
551.214
-6.84321
-0.901773
548.728
-9.0457
-1.13525
546.639
-10.4991
-1.29245
544.905
-11.3907
-1.39051
543.482
-11.8431
-1.43867
542.347
-11.9258
-1.44071
541.495
-11.6832
-1.39918
540.928
-11.1715
-1.32051
540.624
-10.483
-1.21817
540.526
-9.72441
-1.10751
540.574
-8.97886
-1.00012
540.715
-8.29896
-0.902611
540.908
-7.71622
-0.817807
541.126
-7.25624
-0.747063
541.35
-6.9352
-0.690097
541.575
-6.77056
-0.647179
541.802
-6.7674
-0.614646
542.051
-6.95651
-0.582801
-7.10735
-0.619233
548.005
2.96686
0.381257
550.242
9.85879
1.13845
553.452
16.7813
1.83486
557.242
21.9634
2.33337
560.838
24.0578
2.50602
563.316
22.6174
2.30784
564.183
18.4901
1.84694
563.527
13.0477
1.26386
561.838
7.59266
0.696507
559.6
2.81135
0.204717
557.193
-1.05391
-0.193543
554.85
-3.99935
-0.501452
552.683
-6.14574
-0.732548
550.734
-7.64892
-0.901496
549.011
-8.64777
-1.02004
547.509
-9.24515
-1.09556
546.225
-9.50974
-1.13224
545.166
-9.49088
-1.13326
544.339
-9.24002
-1.10361
543.735
-8.82578
-1.05198
543.322
-8.32271
-0.98828
543.062
-7.79663
-0.921336
542.915
-7.29432
-0.857247
542.847
-6.84798
-0.799629
542.83
-6.48727
-0.751154
542.842
-6.23403
-0.712969
542.875
-6.1157
-0.686822
542.92
-6.14201
-0.670422
543
-6.38226
-0.652495
-6.57797
-0.7143
547.709
1.96265
0.267547
549.605
7.12349
0.838774
552.416
12.5792
1.39074
555.804
16.7729
1.8031
559.157
18.722
1.98236
561.768
18.1099
1.89651
563.204
15.446
1.6076
563.419
11.627
1.20591
562.676
7.55229
0.783533
561.309
3.78605
0.391306
559.604
0.598235
0.053356
557.768
-1.93905
-0.224262
555.934
-3.86682
-0.445108
554.177
-5.27563
-0.616638
552.536
-6.26106
-0.746104
551.033
-6.90293
-0.838897
549.684
-7.26102
-0.898757
548.504
-7.38141
-0.928779
547.506
-7.3083
-0.93293
546.691
-7.09318
-0.917201
546.046
-6.78854
-0.888254
545.547
-6.44423
-0.852808
545.168
-6.09815
-0.816088
544.881
-5.77855
-0.781741
544.661
-5.51407
-0.753072
544.487
-5.32757
-0.731993
544.347
-5.25351
-0.721899
544.224
-5.29993
-0.719399
544.144
-5.58433
-0.717583
-5.79396
-0.803971
547.416
1.19366
0.189798
548.996
4.90052
0.643524
551.504
8.96426
1.10604
554.652
12.16
1.46559
557.905
13.8204
1.64763
560.674
13.7126
1.62897
562.557
12.1148
1.4475
563.438
9.58242
1.16329
563.435
6.71424
0.840524
562.764
3.93562
0.521658
561.644
1.48662
0.231042
560.26
-0.535066
-0.0203844
558.748
-2.12453
-0.230577
557.2
-3.32589
-0.401992
555.676
-4.19879
-0.538471
554.217
-4.79973
-0.643622
552.852
-5.17534
-0.720437
551.606
-5.36361
-0.771635
550.499
-5.3997
-0.800414
549.539
-5.32115
-0.811141
548.723
-5.16417
-0.808513
548.042
-4.96439
-0.797727
547.477
-4.74987
-0.783172
547.01
-4.5425
-0.76821
546.619
-4.36632
-0.75643
546.283
-4.24134
-0.749961
545.99
-4.20503
-0.754414
545.713
-4.25802
-0.763231
545.491
-4.56862
-0.78893
-4.71998
-0.897395
547.169
0.613464
0.13144
548.5
3.05005
0.51912
550.807
5.72484
0.932916
553.811
7.89268
1.26276
557.039
9.14319
1.44906
559.973
9.30363
1.47507
562.233
8.4894
1.36455
563.651
7.0056
1.15876
564.249
5.21094
0.904506
564.159
3.38814
0.637337
563.546
1.71839
0.380726
562.569
0.292882
0.147954
561.362
-0.86278
-0.0552863
560.026
-1.76248
-0.228002
558.635
-2.43735
-0.371504
557.245
-2.92188
-0.487872
555.896
-3.24744
-0.579297
554.621
-3.44103
-0.648013
553.445
-3.52745
-0.696616
552.384
-3.5317
-0.728459
551.443
-3.47686
-0.747022
550.621
-3.3859
-0.756369
549.908
-3.27712
-0.760095
549.291
-3.16514
-0.760975
548.754
-3.06729
-0.762609
548.278
-2.99835
-0.76618
547.85
-2.99302
-0.782144
547.427
-3.04494
-0.793486
547.081
-3.35269
-0.876261
-3.3428
-0.96302
547.015
0.206355
0.0761772
548.166
1.44633
0.452145
550.311
2.73401
0.845897
553.197
3.8422
1.16409
556.421
4.55599
1.36254
559.528
4.76909
1.42649
562.145
4.50223
1.36881
564.056
3.87477
1.21868
565.208
3.04599
1.01169
565.66
2.15517
0.778803
565.531
1.3025
0.543054
564.955
0.547064
0.31947
564.059
-0.0861745
0.116503
562.95
-0.594926
-0.0622314
561.714
-0.988916
-0.216105
560.417
-1.28279
-0.345891
559.111
-1.49175
-0.453101
557.836
-1.62994
-0.539524
556.622
-1.7106
-0.607264
555.491
-1.74662
-0.658881
554.456
-1.74957
-0.697056
553.52
-1.73097
-0.724921
552.683
-1.70024
-0.745126
551.937
-1.6655
-0.759096
551.273
-1.63816
-0.769788
550.673
-1.62696
-0.774882
550.134
-1.66548
-0.795672
549.582
-1.72674
-0.779207
549.119
-1.9437
-0.938542
-1.77733
-0.724957
546.951
0.034469
547.974
0.422432
549.888
0.819216
552.578
1.1514
555.747
1.38515
559.013
1.50235
562.008
1.50501
564.469
1.41109
566.265
1.24746
567.375
1.04156
567.857
0.816766
567.809
0.590702
567.342
0.375227
566.565
0.177085
565.57
-0.000473718
564.438
-0.156351
563.23
-0.290915
561.999
-0.405422
560.783
-0.501765
559.61
-0.582037
558.5
-0.648547
557.464
-0.70411
556.506
-0.752125
555.626
-0.795125
554.822
-0.842649
554.082
-0.895103
553.399
-0.997875
552.717
-1.04647
552.096
-1.39893
-0.380958
529.999
7.5601
14.2991
118.727
27.0579
50.3938
120.194
122.307
123.299
-17.8846
104.732
8.32391
23.5556
-11.2679
-19.7576
2.80548
13.1474
3.90147
3.64906
3.70269
3.81936
-2.90487
4.05906
-0.858215
-5.53922
5.24325
-11.4767
4.079
-0.933539
-4.86514
13.1964
2.90535
-17.478
18.666
-0.675085
-3.41829
2.04288
-21.6835
22.5382
-0.481056
-2.41657
1.45054
-24.7506
25.3895
-0.357114
-1.73236
1.02786
-27.0722
27.5664
-0.281923
-1.24007
0.703787
-28.8835
29.2734
-0.23542
-0.858213
0.433154
-30.3104
30.6137
-0.20065
-0.535717
0.194312
-31.3952
31.6116
-0.160904
-0.249768
-32.113
0.177495
129.314
-0.737321
-0.40653
-32.0671
-32.1052
-32.0613
524.481
-3.5123
-1.64179
-130.061
-129.865
-130.017
-129.841
528.013
-2.72913
-1.21318
530.824
-2.24233
-0.899317
533.157
-1.92908
-0.638613
535.153
-1.71997
-0.414991
536.904
-1.57998
-0.216853
538.47
-1.48942
-0.0363571
539.898
-1.43616
0.131284
541.215
-1.4058
0.296678
542.44
-1.39733
0.448279
-1.38617
0.642586
533.359
12.7287
12.6709
122.574
43.7044
43.5041
125.198
125.145
127.147
-15.1606
-15.2876
112.616
20.2859
20.1207
-9.21046
-9.62728
-23.4931
20.3553
11.1519
10.8238
-8.22717
4.1228
4.05245
-5.24263
-5.25876
10.5533
-15.5895
3.56206
3.46088
-4.10151
-4.20394
16.872
2.52501
2.45001
-20.0451
20.9356
-2.89135
-2.97423
1.80554
1.75814
-23.242
23.9098
-2.0884
-2.14312
1.31516
1.31751
-25.6729
26.1918
-1.57645
-1.57519
0.963952
1.04521
-27.5789
27.9918
-1.25729
-1.16472
0.692291
0.873227
-29.1031
29.4351
-1.05364
-0.843835
0.461669
0.743927
-30.3249
30.5876
-0.899536
-0.568755
0.252935
0.602724
-31.2746
31.4705
-0.732598
-0.318852
-31.962
0.397669
1.50399
128.848
-2.21314
-0.691165
-31.9573
-31.9619
-31.9582
523.438
-6.95132
-2.4193
-129.654
-129.602
-129.655
-129.622
527.111
-5.38285
-1.75099
530.011
-4.40112
-1.30094
532.391
-3.76381
-0.96176
534.407
-3.33688
-0.69113
536.156
-3.04749
-0.465017
537.703
-2.85571
-0.268826
539.097
-2.73692
-0.0935826
540.373
-2.66888
0.0722199
541.548
-2.638
0.223374
-2.59252
0.39488
537.795
14.9616
10.3192
128.104
48.2447
33.5022
130.482
129.557
131.543
-22.8676
-10.8642
123.36
23.7377
14.7387
-6.26842
-13.0442
51.7562
32.5618
27.668
29.1858
28.3525
29.8628
-118.617
-15.4898
-12.2259
-14.4066
-7.18327
-5.55074
-6.60162
-3.73271
-7.55282
-6.76631
7.28493
7.05693
3.71428
1.11938
1.80918
-2.34488
3.11164
-2.62677
-1.06865
-20.5707
7.40276
3.51351
-7.41958
-4.1108
21.1847
2.48149
5.07708
-22.7321
-2.92247
23.2022
-5.10623
1.82116
3.6475
-24.5355
24.9561
-3.72825
-2.16109
1.37295
2.72644
-26.142
26.5134
-2.82881
-1.64201
1.05494
2.12405
-27.5557
27.8796
-2.23215
-1.27077
0.816475
1.73402
-28.7825
29.0614
-1.83951
-0.989865
0.623254
1.47486
-29.8334
30.0698
-1.5743
-0.760206
0.450765
1.27248
-30.7161
30.9107
-1.36429
-0.553635
0.285783
1.05471
-31.4313
31.5841
-1.13761
-0.355742
-31.9872
0.591713
2.83658
128.857
-3.34706
-0.933638
-32.0082
-31.9922
-32.0139
523.225
-9.79788
-3.17186
-129.6
-129.683
-129.643
-129.742
526.788
-7.72171
-2.30039
529.648
-6.35475
-1.71232
532.002
-5.43508
-1.28597
533.985
-4.80444
-0.961054
535.693
-4.36948
-0.701735
537.191
-4.07593
-0.48596
538.53
-3.88925
-0.300186
539.747
-3.78118
-0.130428
540.864
-3.72815
0.0210259
-3.65954
0.183643
542.037
14.9368
8.02926
534.341
45.5979
24.597
131.674
86.2703
47.251
-23.3694
-31.1938
-21.4405
-28.075
134.22
132.917
134.821
-45.2862
-13.3845
133.741
38.5862
18.0176
-5.71267
-18.6733
-34.8247
36.4552
16.1055
6.64996
-1.42634
-8.14573
-12.5631
15.449
5.46981
1.21873
0.844865
4.11998
-9.12695
8.16454
-3.77105
-0.231152
9.62608
-29.8707
2.98068
29.1567
-8.43929
-3.45348
2.00991
6.36539
-28.1245
-2.36927
27.9901
-5.87163
1.50598
4.67206
-27.917
27.9668
-4.43399
-1.79391
1.18884
3.61623
-28.2452
28.3692
-3.50342
-1.42578
0.962281
2.88609
-28.799
28.9548
-2.84402
-1.16021
0.790443
2.37219
-29.4411
29.6054
-2.36982
-0.957217
0.653105
2.01436
-30.094
30.2528
-2.03267
-0.793662
0.534384
1.75856
-30.7105
30.8552
-1.78651
-0.65124
0.420376
1.54553
-31.262
31.3873
-1.57752
-0.513797
0.301936
1.3111
-31.7312
31.8348
-1.34541
-0.371294
-32.1257
0.736025
3.74251
129.245
-4.03002
-1.10208
-32.1605
-32.1348
-32.1703
523.971
-11.8568
-3.71174
-129.877
-130.066
-129.954
-130.155
527.192
-9.56803
-2.73385
529.853
-7.9749
-2.05777
532.071
-6.85368
-1.56937
533.947
-6.06025
-1.20305
535.559
-5.50114
-0.917563
536.968
-5.11739
-0.686355
538.221
-4.86937
-0.492695
539.356
-4.72537
-0.32077
540.4
-4.6549
-0.170361
-4.56861
-0.0144339
545.046
13.5883
6.01337
543.062
39.8783
17.5537
136.4
68.9283
30.6282
137.054
136.607
137.349
-32.3592
138.251
27.6399
9.78405
-42.7208
-9.23137
147.623
33.9539
12.3776
-142.003
-9.57302
-2.17703
-38.8882
39.9316
2.52231
8.18395
-1.37101
-0.28763
-41.0785
40.6196
0.384167
1.73328
4.91418
3.79446
-148.931
141.265
-10.9853
-4.66401
5.253
4.50053
4.85239
5.24437
-135.139
4.27199
130.926
-14.489
-5.63271
4.96055
5.05611
4.80199
4.3624
3.74356
-128.011
126.172
-13.5634
-5.09938
4.1838
4.18759
4.02371
3.61209
3.20195
-124.961
124.268
-12.0278
-4.43879
3.47961
3.49338
3.37106
3.04029
2.76741
-123.894
123.796
-10.5918
-3.87617
2.94088
2.95449
2.86107
2.59538
2.41959
-123.884
124.126
-9.35424
-3.41143
2.51898
2.53025
2.45767
2.25094
2.1333
-124.479
124.91
-8.33362
-3.02014
2.19308
2.19874
2.14312
1.98841
1.88617
-125.4
125.918
-7.50966
-2.67548
1.9449
1.94345
1.90105
1.78222
1.65232
-126.456
126.987
-6.81757
-2.34462
1.74638
1.74081
1.70546
1.59455
1.40223
-127.515
128.014
-6.14233
-1.98985
1.55741
1.55534
1.51869
1.37844
1.11306
-128.503
128.962
-5.33989
-1.58525
1.33073
1.34298
1.29658
4.21743
-129.434
0.797229
129.912
-4.33584
-1.15933
525.654
-13.0818
-3.92819
-130.435
-130.734
-130.537
-130.841
528.361
-10.8309
-2.96966
530.673
-9.16398
-2.28112
532.641
-7.93965
-1.77544
534.324
-7.04383
-1.39436
535.779
-6.39758
-1.09894
537.053
-5.94662
-0.862631
538.187
-5.65201
-0.66804
539.215
-5.48185
-0.498895
540.163
-5.40223
-0.353113
-5.30541
-0.20553
546.942
11.5832
4.35904
548.022
33.2748
12.381
553.643
54.4698
20.2733
567.01
71.4218
26.7251
-23.6653
-26.0097
-21.9971
-24.1162
146.935
74.1105
27.612
-27.3687
-25.95
-25.3831
-24.0068
145.434
146.402
145.162
-21.395
-3.61962
149.052
17.9334
4.96414
-6.73503
-1.23221
-149.427
148.201
7.38602
1.80695
558.598
-4.62585
-3.84717
5.75439
8.12013
4.67711
6.91546
-145.4
-144.259
-144.964
-144.03
541.826
-18.9549
-8.816
10.17
10.3548
9.05807
9.36943
530.761
-25.2725
-10.5183
10.7219
10.3796
9.86453
9.63298
524.118
-27.3126
-10.7808
10.1511
9.72302
9.49327
9.14133
520.525
-27.343
-10.502
9.31827
8.91384
8.80086
8.44874
518.994
-26.4923
-10.0154
8.48164
8.13298
8.05997
7.74754
518.812
-25.3002
-9.44994
7.73386
7.44352
7.37693
7.10962
519.471
-23.9855
-8.82646
7.08862
6.84382
6.77146
6.53988
520.613
-22.5411
-8.1052
6.51014
6.2783
6.21586
5.99258
522.047
-20.8166
-7.21882
5.91452
5.6499
5.63819
5.38448
523.784
-18.6403
-6.13477
5.19598
4.86212
4.94844
4.63589
525.879
-16.0726
-4.94282
4.31705
3.98273
4.12088
3.80531
528.131
-13.5336
-3.83821
530.209
-11.4764
-2.99704
532.064
-9.87271
-2.36683
533.69
-8.64211
-1.88999
535.109
-7.71107
-1.52381
536.351
-7.02335
-1.23778
537.448
-6.53569
-1.00935
538.43
-6.2149
-0.822914
539.324
-6.03238
-0.663258
540.157
-5.95479
-0.527159
-5.85684
-0.391755
547.938
9.40441
3.08189
550.374
26.93
8.6595
555.737
43.0191
13.703
564.757
54.827
17.439
574.589
56.4582
17.7157
577.996
44.2713
13.1652
-15.2876
-12.1296
-14.5971
-11.603
572.836
24.7096
6.71434
-7.39082
-4.01292
-7.29522
-4.14697
561.9
5.76131
0.396
551.178
-6.98874
-3.44624
542.635
-14.4764
-5.47557
536.522
-18.4394
-6.42745
532.449
-20.2769
-6.80045
529.926
-20.9065
-6.85977
528.518
-20.856
-6.74731
527.886
-20.4082
-6.51656
527.786
-19.6476
-6.16826
528.086
-18.5408
-5.67662
528.768
-17.0296
-5.02755
529.839
-15.176
-4.26515
531.186
-13.2385
-3.5039
532.585
-11.5197
-2.85523
533.923
-10.0907
-2.3332
535.151
-8.94167
-1.91984
536.258
-8.04099
-1.59294
537.248
-7.35885
-1.33343
538.135
-6.86728
-1.12511
538.939
-6.54284
-0.955865
539.678
-6.36336
-0.812725
540.378
-6.30053
-0.691929
-6.21281
-0.573706
548.331
7.34656
2.14472
551.179
21.3221
6.03941
556.004
33.9274
9.41619
562.678
42.8808
11.7569
569.175
44.5216
11.9967
571.862
37.1499
9.59774
569.422
24.3234
5.8585
563.256
10.8145
2.01149
556.232
0.230746
-0.797247
549.886
-7.06453
-2.61656
544.768
-11.7107
-3.71674
540.908
-14.4848
-4.34094
538.109
-15.9999
-4.66394
536.158
-16.7204
-4.79659
534.847
-16.904
-4.79331
534.022
-16.6793
-4.67126
533.595
-16.0789
-4.42637
533.546
-15.1074
-4.05646
533.868
-13.8284
-3.58771
534.49
-12.4115
-3.08606
535.27
-11.0586
-2.62073
536.103
-9.86389
-2.2196
536.925
-8.85727
-1.88584
537.702
-8.03901
-1.61269
538.422
-7.40291
-1.39141
539.083
-6.93714
-1.21242
539.692
-6.62996
-1.06768
540.263
-6.46786
-0.947206
540.818
-6.43223
-0.846974
-6.36709
-0.751394
548.37
5.55228
1.48145
551.171
16.5744
4.21915
555.387
26.6849
6.58274
560.616
33.9008
8.18994
565.454
35.7746
8.46999
567.865
31.3708
7.18191
567.038
22.7643
4.96217
563.592
12.9772
2.51947
559.052
4.43625
0.493234
554.471
-2.10998
-0.997404
550.406
-6.77001
-2.03184
547.015
-9.88064
-2.71236
544.31
-11.8671
-3.14304
542.198
-13.0496
-3.39867
540.575
-13.6558
-3.52362
539.352
-13.8203
-3.53861
538.48
-13.6073
-3.44928
537.942
-13.0534
-3.25968
537.732
-12.2213
-2.9875
537.807
-11.2296
-2.67183
538.079
-10.2156
-2.35583
538.467
-9.26885
-2.06576
538.911
-8.43446
-1.81249
539.37
-7.73135
-1.59789
539.822
-7.17032
-1.42048
540.253
-6.75312
-1.27616
540.663
-6.47979
-1.16073
541.058
-6.34599
-1.06735
541.461
-6.3482
-0.991963
-6.31719
-0.924517
548.216
4.04939
1.02137
550.768
12.6407
2.97417
554.409
20.858
4.70187
558.715
26.8531
5.89769
562.692
28.8909
6.21804
565.07
26.3752
5.53453
565.261
20.5623
4.18106
563.537
13.4234
2.57711
560.709
6.67196
1.1154
557.513
1.0585
-0.0721266
554.375
-3.22635
-0.973526
551.55
-6.33079
-1.62653
549.104
-8.47312
-2.08491
547.038
-9.88105
-2.39525
545.316
-10.7347
-2.59001
543.901
-11.1563
-2.68776
542.769
-11.2192
-2.69736
541.916
-10.9738
-2.62538
541.339
-10.4791
-2.48485
541.015
-9.8222
-2.30015
540.891
-9.09916
-2.09871
540.911
-8.3858
-1.90167
541.025
-7.72908
-1.72125
541.195
-7.15583
-1.56317
541.395
-6.68659
-1.43023
541.607
-6.33267
-1.32228
541.823
-6.10404
-1.23818
542.042
-6.00519
-1.1744
542.291
-6.05144
-1.12642
-6.06362
-1.09271
547.98
2.83225
0.708621
550.185
9.43562
2.13871
553.333
16.0903
3.45441
557.041
21.0773
4.40093
560.564
23.1291
4.74448
563.02
21.8235
4.40339
563.929
17.9382
3.56141
563.37
12.7673
2.47894
561.783
7.54626
1.40854
559.64
2.9353
0.470393
557.319
-0.804112
-0.295116
555.038
-3.6608
-0.8911
552.916
-5.74287
-1.34045
550.999
-7.19632
-1.66981
549.3
-8.15444
-1.90121
547.816
-8.71863
-2.04922
546.548
-8.95924
-2.12274
545.499
-8.92858
-2.12884
544.675
-8.67958
-2.07757
544.066
-8.27816
-1.98509
543.643
-7.793
-1.8694
543.369
-7.28481
-1.74671
543.208
-6.79572
-1.62824
543.128
-6.35357
-1.52087
543.103
-5.98254
-1.42964
543.113
-5.69922
-1.35693
543.146
-5.52082
-1.30392
543.198
-5.45779
-1.26999
543.294
-5.54791
-1.25063
-5.60621
-1.25597
547.688
1.87453
0.497883
549.547
6.83055
1.58441
552.309
12.0843
2.63482
555.633
16.1326
3.42381
558.93
18.0376
3.77623
561.516
17.4991
3.63408
562.971
14.987
3.10397
563.239
11.3502
2.35421
562.571
7.44272
1.5549
561.276
3.81374
0.806828
559.635
0.731863
0.158052
557.853
-1.72587
-0.377521
556.062
-3.59328
-0.804871
554.341
-4.95451
-1.13719
552.73
-5.90096
-1.38797
551.251
-6.51083
-1.56773
549.923
-6.8443
-1.68416
548.76
-6.94882
-1.74379
547.773
-6.86929
-1.75463
546.964
-6.65578
-1.72802
546.319
-6.35762
-1.67628
545.816
-6.02135
-1.61181
545.431
-5.68152
-1.54422
545.14
-5.36291
-1.48035
544.919
-5.08889
-1.42616
544.75
-4.87762
-1.38562
544.616
-4.74912
-1.36158
544.513
-4.71907
-1.35637
544.457
-4.841
-1.3649
-4.93943
-1.41497
547.402
1.13822
0.352855
548.954
4.7002
1.22176
551.418
8.61732
2.10793
554.512
11.7061
2.79836
557.716
13.3264
3.15433
560.455
13.2555
3.13272
562.34
11.75
2.7992
563.25
9.33664
2.26644
563.292
6.58553
1.65415
562.673
3.90901
1.04524
561.604
1.54317
0.487504
560.267
-0.41311
0.00325751
558.796
-1.95131
-0.402352
557.284
-3.11163
-0.733218
555.791
-3.9508
-0.996378
554.359
-4.52385
-1.19884
553.019
-4.87716
-1.34666
551.794
-5.04921
-1.44546
550.703
-5.07543
-1.50172
549.754
-4.99261
-1.52386
548.945
-4.83531
-1.52073
548.266
-4.63732
-1.502
547.702
-4.42463
-1.47573
547.234
-4.2169
-1.44822
546.846
-4.0335
-1.42569
546.519
-3.89144
-1.41298
546.236
-3.81
-1.41487
545.994
-3.81186
-1.43447
545.78
-3.94817
-1.47082
-4.07877
-1.57052
547.16
0.582342
0.242964
548.468
2.92097
0.990393
550.734
5.49657
1.78714
553.689
7.59109
2.42202
556.868
8.80916
2.78594
559.768
8.98417
2.84616
562.017
8.22094
2.64371
563.445
6.80901
2.25653
564.071
5.08989
1.77275
564.017
3.33663
1.26147
563.445
1.72608
0.768512
562.508
0.348732
0.320283
561.339
-0.768386
-0.0714109
560.037
-1.637
-0.404099
558.679
-2.2864
-0.680032
557.318
-2.74989
-0.903245
555.995
-3.05826
-1.07819
554.744
-3.23852
-1.20949
553.587
-3.31541
-1.30245
552.541
-3.31358
-1.36368
551.611
-3.25534
-1.39986
550.794
-3.16285
-1.41877
550.085
-3.05325
-1.42723
549.471
-2.94001
-1.43086
548.938
-2.83588
-1.43593
548.473
-2.75527
-1.44729
548.052
-2.71114
-1.47238
547.686
-2.74202
-1.50887
547.291
-2.86142
-1.57538
-3.0783
-1.72082
547.008
0.193302
0.142125
548.139
1.37933
0.862219
550.245
2.61414
1.62073
553.083
3.68094
2.2349
556.257
4.37273
2.6231
559.324
4.58655
2.75578
561.917
4.33949
2.65427
563.824
3.74483
2.3733
564.988
2.95374
1.98015
565.465
2.10005
1.53469
565.366
1.28076
1.08177
564.824
0.553605
0.651061
563.963
-0.0563964
0.25956
562.888
-0.546222
-0.0851779
561.684
-0.924731
-0.381537
560.418
-1.20585
-0.630944
559.139
-1.40431
-0.836364
557.889
-1.534
-1.0015
556.696
-1.60782
-1.13076
555.582
-1.63845
-1.22948
554.56
-1.63705
-1.30309
553.633
-1.61471
-1.35809
552.8
-1.57932
-1.40051
552.057
-1.53687
-1.43543
551.397
-1.49123
-1.47011
550.81
-1.4498
-1.50827
550.264
-1.41575
-1.5684
549.775
-1.42906
-1.61859
549.135
-1.49653
-1.77471
-1.77808
-1.83002
546.944
0.0669877
547.949
0.794856
549.829
1.55212
552.471
2.18901
555.587
2.63957
558.803
2.87076
561.76
2.88447
564.199
2.71321
565.989
2.40708
567.107
2.01825
567.608
1.59143
567.585
1.16056
567.148
0.748703
566.401
0.369481
565.438
0.0297609
564.336
-0.26827
563.157
-0.525198
561.952
-0.743207
560.759
-0.925814
559.605
-1.07747
558.511
-1.20279
557.487
-1.30739
556.539
-1.39718
555.669
-1.47715
554.879
-1.55765
554.157
-1.64185
553.49
-1.76327
552.794
-1.85308
552.003
-2.11869
-1.81272
535.659
6.01083
16.4591
126.09
20.016
54.368
126.84
129.109
129.629
-26.2112
119.563
5.86255
26.8761
-14.6593
-27.1632
25.5453
1.72287
14.5544
0.633901
1.33232
0.225239
-2.19151
-17.3848
8.75289
-0.958778
-8.82071
18.4113
5.9986
-20.7157
-0.668024
21.3732
-5.98813
4.23877
-23.1571
23.6991
-0.4818
-4.29902
3.10413
-25.1902
25.6456
-0.358078
-3.20145
2.31314
-26.9025
27.2883
-0.276695
-2.42226
1.71835
-28.3585
28.6884
-0.22383
-1.82446
1.23381
-29.605
29.887
-0.188155
-1.32767
0.805714
-30.6632
30.8978
-0.159443
-0.880876
0.415301
-31.5224
31.7015
-0.126517
-0.467919
-32.1355
0.666615
129.361
-0.584371
-0.936179
-32.0974
-32.1545
-32.1182
524.544
-2.94394
-3.0769
-130.067
-129.911
-130.158
-130.022
527.942
-2.367
-2.24194
530.673
-1.98529
-1.64407
532.94
-1.72451
-1.18036
534.872
-1.54142
-0.805737
536.556
-1.41296
-0.488574
538.053
-1.32485