/*--------------------------------*- C++ -*----------------------------------*\
  =========                 |
  \\      /  F ield         | OpenFOAM: The Open Source CFD Toolbox
   \\    /   O peration     | Website:  https://openfoam.org
    \\  /    A nd           | Version:  10
     \\/     M anipulation  |
\*---------------------------------------------------------------------------*/
FoamFile
{
    format      ascii;
    class       volVectorField;
    location    "300";
    object      U;
}
// * * * * * * * * * * * * * * * * * * * * * * * * * * * * * * * * * * * * * //

dimensions      [0 1 -1 0 0 0 0];

internalField   nonuniform List<vector> 
27507
(
(13.8851 0.0864355 0.0861196)
(13.0629 0.333887 0.33466)
(10.9969 0.37375 0.371313)
(4.96771 0.52212 0.49376)
(-0.229099 -0.0989345 -0.113865)
(3.11583 -0.155675 -0.164213)
(6.14073 -0.119673 -0.124334)
(8.32001 -0.0854889 -0.0872638)
(9.86694 -0.0632498 -0.0608009)
(10.9971 -0.0502947 -0.0420309)
(11.8511 -0.0426826 -0.027888)
(12.5039 -0.0370339 -0.0163107)
(12.98 -0.0300872 -0.00608007)
(13.2504 -0.0313936 0.00267084)
(13.399 -0.0364344 -0.000408082)
(13.4986 -0.0285237 -0.00224085)
(13.575 -0.0235644 -0.00225288)
(13.6387 -0.0203901 -0.00158231)
(13.6935 -0.0183687 -0.000755097)
(13.7414 -0.0171112 8.56785e-05)
(13.7843 -0.0163973 0.000907657)
(13.8234 -0.0161004 0.00169229)
(13.8608 -0.016024 0.00252302)
(13.8921 -0.0162386 0.0031463)
(13.9368 -0.0159239 0.00431506)
(13.8905 0.229267 0.0752862)
(13.2542 0.846924 0.27988)
(11.656 1.60533 0.315914)
(7.19494 3.7251 0.425115)
(1.61197 -1.28894 -0.140389)
(5.02913 -1.31502 -0.14902)
(7.4039 -0.948153 -0.108323)
(9.0721 -0.676546 -0.0766712)
(10.2906 -0.505617 -0.0548555)
(11.2116 -0.404161 -0.0393957)
(11.926 -0.342897 -0.0276153)
(12.4828 -0.297313 -0.0177694)
(12.8999 -0.244824 -0.00882836)
(13.1836 -0.16724 -0.00301539)
(13.3607 -0.114533 -0.00626036)
(13.4678 -0.0858864 -0.00575947)
(13.5485 -0.0695304 -0.00466368)
(13.6146 -0.0595577 -0.00344397)
(13.6706 -0.0532142 -0.00231178)
(13.7189 -0.0491585 -0.00129587)
(13.7616 -0.0467076 -0.000377207)
(13.8 -0.0454705 0.000456995)
(13.8361 -0.0449833 0.00130013)
(13.8662 -0.0451706 0.00193311)
(13.9087 -0.044497 0.00270211)
(13.9143 0.304937 0.0602454)
(13.5012 1.03406 0.204449)
(12.6282 2.05571 0.22294)
(10.7385 4.52329 0.269619)
(0.185333 0.939351 -0.0964918)
(7.13303 -2.57523 -0.153965)
(8.56869 -1.80139 -0.106361)
(9.59829 -1.28733 -0.0773142)
(10.4439 -0.957476 -0.0575051)
(11.1486 -0.748125 -0.043568)
(11.7364 -0.618359 -0.0332485)
(12.2245 -0.535791 -0.0249831)
(12.6235 -0.471569 -0.0176774)
(12.9358 -0.397803 -0.0106298)
(13.1732 -0.275336 -0.0083639)
(13.3464 -0.182208 -0.0122654)
(13.4516 -0.138808 -0.00955556)
(13.5331 -0.11267 -0.00726633)
(13.5998 -0.096159 -0.00540045)
(13.6558 -0.0854288 -0.0038991)
(13.7036 -0.0784233 -0.00266666)
(13.7454 -0.0740518 -0.00162191)
(13.7824 -0.0716712 -0.00071791)
(13.8169 -0.0706701 0.000159519)
(13.8456 -0.0706302 0.000804065)
(13.8862 -0.0699857 0.00143836)
(13.9535 0.319232 0.0460381)
(13.7102 1.0252 0.144899)
(13.4551 2.08161 0.300338)
(13.149 3.70632 0.280748)
(13.9642 6.36445 0.261094)
(4.94655 2.97229 0.122632)
(8.85861 -2.63419 -0.25144)
(11.3138 -3.20577 -0.133962)
(11.0278 -2.1256 -0.0863411)
(11.1111 -1.56467 -0.0634873)
(11.3501 -1.20907 -0.049581)
(11.6575 -0.966151 -0.0398022)
(11.9828 -0.800094 -0.0324841)
(12.2964 -0.689215 -0.026711)
(12.5817 -0.613055 -0.0217631)
(12.8289 -0.549401 -0.0170189)
(13.0317 -0.473949 -0.0119903)
(13.2055 -0.340123 -0.0129013)
(13.3614 -0.232949 -0.017095)
(13.4571 -0.182609 -0.0127406)
(13.5341 -0.150106 -0.00953943)
(13.5979 -0.128485 -0.00715892)
(13.6515 -0.113931 -0.00535082)
(13.6972 -0.104183 -0.00393255)
(13.7368 -0.0979464 -0.00277769)
(13.7717 -0.0944219 -0.00181356)
(13.8041 -0.0928925 -0.000909892)
(13.8308 -0.0927341 -0.000252635)
(13.8689 -0.0920845 0.000297332)
(13.9815 0.298545 0.0337753)
(13.882 0.903327 0.0996509)
(13.841 1.64839 0.180732)
(14.1101 2.46713 0.270758)
(14.7493 3.26927 0.195636)
(16.3408 3.04547 0.0925371)
(17.0835 0.398931 0.00619844)
(14.7884 -1.37884 -0.085791)
(13.424 -1.50541 -0.0909829)
(12.8321 -1.29898 -0.0780946)
(12.6048 -1.0995 -0.0661084)
(12.5536 -0.939449 -0.0568778)
(12.598 -0.813069 -0.0497441)
(12.6951 -0.715811 -0.0440924)
(12.817 -0.642765 -0.0393729)
(12.9442 -0.585332 -0.0349483)
(13.064 -0.530523 -0.03009)
(13.1701 -0.461779 -0.024102)
(13.2686 -0.365801 -0.0160328)
(13.4063 -0.265469 -0.0197942)
(13.4864 -0.214627 -0.0147004)
(13.5538 -0.179399 -0.0111022)
(13.6108 -0.154691 -0.00849127)
(13.6593 -0.137415 -0.00653483)
(13.7008 -0.12553 -0.00502263)
(13.7369 -0.11777 -0.003814)
(13.7686 -0.113303 -0.00282681)
(13.7981 -0.11137 -0.00192323)
(13.8222 -0.11123 -0.00127048)
(13.8571 -0.110624 -0.00081006)
(13.9972 0.259513 0.0241546)
(13.9855 0.753848 0.0689469)
(14.031 1.27543 0.115772)
(14.2676 1.74135 0.158502)
(14.7681 1.80792 0.163145)
(15.2553 1.6018 0.0754544)
(15.3485 0.549514 0.0236021)
(14.5508 -0.300239 -0.0340319)
(13.9962 -0.589404 -0.0593747)
(13.623 -0.684063 -0.0652193)
(13.4037 -0.687016 -0.0641133)
(13.2853 -0.655553 -0.0608745)
(13.2331 -0.614693 -0.0572033)
(13.2246 -0.574365 -0.0536177)
(13.243 -0.537266 -0.0500643)
(13.2761 -0.501181 -0.0461369)
(13.3161 -0.460245 -0.041238)
(13.3604 -0.407648 -0.0348973)
(13.4134 -0.343148 -0.027383)
(13.476 -0.280954 -0.020153)
(13.537 -0.23396 -0.0152884)
(13.5911 -0.199041 -0.0118414)
(13.6382 -0.173333 -0.00930333)
(13.6792 -0.154699 -0.00738003)
(13.7147 -0.141548 -0.00588791)
(13.7458 -0.13281 -0.00470028)
(13.7733 -0.127749 -0.00374184)
(13.799 -0.125639 -0.00287638)
(13.82 -0.125709 -0.00225551)
(13.8511 -0.125286 -0.00191239)
(14.0057 0.213877 0.0169227)
(14.0388 0.612109 0.0475637)
(14.1219 0.990707 0.0765414)
(14.3166 1.28607 0.0996112)
(14.6145 1.31364 0.0999172)
(14.8446 0.989532 0.0724087)
(14.8159 0.482658 0.0332084)
(14.5438 0.0167317 -0.00307843)
(14.2162 -0.262618 -0.0234672)
(13.9494 -0.405546 -0.033298)
(13.7587 -0.468255 -0.0373903)
(13.6311 -0.488036 -0.038527)
(13.5519 -0.486371 -0.038253)
(13.5077 -0.474733 -0.0372956)
(13.4876 -0.458177 -0.0358775)
(13.4833 -0.437323 -0.0339192)
(13.4895 -0.409848 -0.0311795)
(13.5044 -0.372892 -0.0274701)
(13.5293 -0.327208 -0.0229742)
(13.5647 -0.280065 -0.0184347)
(13.6043 -0.240194 -0.0147382)
(13.6427 -0.208316 -0.0118577)
(13.678 -0.183625 -0.00962726)
(13.7097 -0.165057 -0.00788868)
(13.738 -0.151614 -0.00651927)
(13.7631 -0.142549 -0.00542469)
(13.7856 -0.137317 -0.00454799)
(13.8069 -0.135312 -0.00376204)
(13.8242 -0.135826 -0.00320569)
(13.8508 -0.135786 -0.00301736)
(14.0094 0.169113 0.0116802)
(14.0612 0.485756 0.0327128)
(14.1539 0.77376 0.0514733)
(14.3116 0.98291 0.0650115)
(14.5119 1.01105 0.0655769)
(14.6577 0.812949 0.0512739)
(14.6583 0.491101 0.0296031)
(14.5187 0.166462 0.00810281)
(14.3208 -0.068105 -0.00677865)
(14.1344 -0.217705 -0.0160564)
(13.9818 -0.305645 -0.0214115)
(13.8656 -0.352972 -0.0242662)
(13.7815 -0.37543 -0.0256404)
(13.7231 -0.383135 -0.0261216)
(13.6841 -0.381622 -0.0259743)
(13.6591 -0.372959 -0.0252488)
(13.6448 -0.356886 -0.0238724)
(13.6399 -0.332551 -0.0217817)
(13.6448 -0.300943 -0.019094)
(13.6595 -0.266455 -0.0162134)
(13.6805 -0.234742 -0.0136014)
(13.7037 -0.207652 -0.0113905)
(13.7269 -0.185571 -0.00958051)
(13.749 -0.168317 -0.00811846)
(13.7694 -0.155494 -0.00694291)
(13.788 -0.146729 -0.00599655)
(13.8049 -0.141746 -0.00524563)
(13.8212 -0.140118 -0.00457658)
(13.8345 -0.141318 -0.00411807)
(13.8562 -0.141897 -0.00412566)
(14.01 0.129193 0.00799817)
(14.0657 0.378546 0.0225877)
(14.1548 0.605125 0.0353661)
(14.2844 0.766397 0.0441939)
(14.432 0.800447 0.0452919)
(14.5401 0.682575 0.0376583)
(14.5595 0.469783 0.0251462)
(14.4902 0.237759 0.0117446)
(14.3711 0.0469588 0.00108197)
(14.2434 -0.0921279 -0.00659742)
(14.1267 -0.186111 -0.0117765)
(14.0285 -0.245828 -0.0151004)
(13.9499 -0.281766 -0.0171621)
(13.8887 -0.301695 -0.0183639)
(13.8417 -0.310609 -0.0189313)
(13.8062 -0.311072 -0.0189522)
(13.78 -0.303911 -0.0184289)
(13.7624 -0.289359 -0.0173562)
(13.7535 -0.26852 -0.0158143)
(13.7532 -0.244265 -0.0140311)
(13.7594 -0.220302 -0.0122729)
(13.7696 -0.198559 -0.0106779)
(13.7818 -0.179955 -0.009302)
(13.7946 -0.164862 -0.00814971)
(13.8072 -0.153348 -0.00720377)
(13.8192 -0.145388 -0.00643881)
(13.8304 -0.140993 -0.00584334)
(13.8416 -0.139944 -0.00531982)
(13.8506 -0.142034 -0.00498829)
(13.8671 -0.143457 -0.00523292)
(14.0087 0.0954693 0.00547533)
(14.0607 0.290146 0.015774)
(14.141 0.472312 0.0249175)
(14.2498 0.603602 0.031248)
(14.3676 0.642439 0.0327126)
(14.4584 0.573834 0.0286776)
(14.4917 0.431262 0.0211732)
(14.4644 0.263164 0.012498)
(14.396 0.111086 0.00482991)
(14.3111 -0.0103885 -0.00128484)
(14.2248 -0.100184 -0.0058507)
(14.1456 -0.162899 -0.00911175)
(14.0766 -0.204788 -0.0113802)
(14.0182 -0.231416 -0.0129086)
(13.9696 -0.246856 -0.0138646)
(13.9295 -0.253619 -0.0143345)
(13.8968 -0.252991 -0.014349)
(13.8714 -0.245734 -0.0139275)
(13.8532 -0.232961 -0.0131302)
(13.8423 -0.216677 -0.0120917)
(13.8376 -0.199398 -0.0109756)
(13.8373 -0.182799 -0.00989393)
(13.84 -0.16793 -0.00891299)
(13.8445 -0.155422 -0.00806318)
(13.85 -0.145638 -0.00735383)
(13.8557 -0.138812 -0.00678289)
(13.8614 -0.135221 -0.00635744)
(13.8675 -0.134842 -0.00599458)
(13.8721 -0.137941 -0.00581285)
(13.8833 -0.140359 -0.00632956)
(14.0063 0.0679745 0.00377961)
(14.0508 0.218304 0.0112438)
(14.1212 0.365832 0.0181068)
(14.2147 0.475046 0.0230074)
(14.3154 0.515889 0.0246571)
(14.3986 0.478308 0.0226201)
(14.4428 0.382644 0.0180016)
(14.4433 0.260763 0.0122079)
(14.4095 0.141865 0.00661606)
(14.3563 0.0400958 0.00178513)
(14.2951 -0.0402103 -0.00211047)
(14.2333 -0.100046 -0.00511585)
(14.1751 -0.142682 -0.00737032)
(14.1223 -0.171831 -0.00902056)
(14.0753 -0.190612 -0.0101819)
(14.0341 -0.201207 -0.0109238)
(13.9984 -0.204988 -0.0112836)
(13.9684 -0.202913 -0.0112891)
(13.9442 -0.196029 -0.0109871)
(13.926 -0.185809 -0.0104629)
(13.9132 -0.174007 -0.00982144)
(13.9048 -0.161978 -0.00914776)
(13.8999 -0.150701 -0.008503)
(13.8973 -0.140871 -0.00792609)
(13.8964 -0.132993 -0.00743991)
(13.8965 -0.12746 -0.00705788)
(13.897 -0.124762 -0.00680025)
(13.8983 -0.125017 -0.00659856)
(13.8988 -0.129139 -0.00658585)
(13.9043 -0.13255 -0.00740208)
(14.0033 0.0461994 0.00264889)
(14.0391 0.16029 0.00826811)
(14.1 0.278464 0.0136847)
(14.1827 0.368456 0.0177199)
(14.2738 0.408036 0.0194444)
(14.3544 0.390114 0.0185449)
(14.4078 0.327119 0.0156539)
(14.428 0.240092 0.0116711)
(14.4191 0.149561 0.00751013)
(14.3901 0.0676188 0.00366134)
(14.3491 -0.00043985 0.000353285)
(14.3027 -0.0536627 -0.00236055)
(14.255 -0.0934107 -0.00451939)
(14.2088 -0.121956 -0.0061985)
(14.1651 -0.141518 -0.00746934)
(14.1248 -0.153849 -0.00838302)
(14.0881 -0.160209 -0.00897371)
(14.0557 -0.161548 -0.00926953)
(14.0277 -0.158795 -0.00930783)
(14.0046 -0.153056 -0.00914607)
(13.986 -0.145577 -0.00885491)
(13.9715 -0.137402 -0.00849807)
(13.9605 -0.129356 -0.00812731)
(13.9521 -0.12208 -0.00778112)
(13.9458 -0.116109 -0.0074868)
(13.9409 -0.111895 -0.00726636)
(13.9369 -0.11009 -0.0071534)
(13.9337 -0.110856 -0.00709368)
(13.9305 -0.115949 -0.0073136)
(13.9301 -0.120075 -0.00843397)
(13.9999 0.0294265 0.0018788)
(14.0273 0.113395 0.00633349)
(14.0807 0.204658 0.0108594)
(14.1561 0.275823 0.0143672)
(14.242 0.311091 0.016123)
(14.3226 0.305368 0.0158998)
(14.3839 0.265921 0.0140822)
(14.4192 0.206195 0.0112676)
(14.4291 0.140247 0.00809032)
(14.419 0.0775848 0.00496224)
(14.3947 0.0232606 0.00211676)
(14.3616 -0.0209143 -0.000342806)
(14.3238 -0.0551638 -0.00239963)
(14.2841 -0.0806927 -0.00407948)
(14.2445 -0.0989562 -0.00542054)
(14.2061 -0.111257 -0.00645707)
(14.1698 -0.11863 -0.00721674)
(14.1362 -0.121902 -0.00772469)
(14.106 -0.121843 -0.00801101)
(14.0795 -0.119277 -0.00811663)
(14.0568 -0.115084 -0.00809078)
(14.0378 -0.110031 -0.00798089)
(14.0219 -0.104754 -0.00782806)
(14.0089 -0.0997798 -0.00766489)
(13.998 -0.0955883 -0.00751571)
(13.9888 -0.0926084 -0.00740476)
(13.9809 -0.0915853 -0.00738539)
(13.9735 -0.0926191 -0.00742833)
(13.9674 -0.0984999 -0.00803303)
(13.9607 -0.102534 -0.0093167)
(13.997 0.0167659 0.00130311)
(14.0174 0.075127 0.00510861)
(14.0654 0.140224 0.0091491)
(14.1359 0.192006 0.01236)
(14.219 0.22043 0.0141583)
(14.3011 0.22176 0.0143794)
(14.3694 0.199587 0.0132653)
(14.417 0.161847 0.0112261)
(14.4421 0.117527 0.00872341)
(14.4476 0.0734137 0.00610267)
(14.4375 0.0336593 0.0035901)
(14.4162 0.000192703 0.00131268)
(14.3875 -0.026593 -0.000676445)
(14.3543 -0.0471896 -0.002369)
(14.319 -0.0624399 -0.0037786)
(14.2831 -0.0732089 -0.00492507)
(14.2478 -0.0802509 -0.00582889)
(14.2141 -0.0842028 -0.00651089)
(14.1826 -0.0856455 -0.00699548)
(14.1538 -0.0851597 -0.00731312)
(14.1282 -0.0833378 -0.00749945)
(14.1057 -0.0807036 -0.00758868)
(14.0861 -0.0776996 -0.00761037)
(14.0692 -0.074699 -0.00758771)
(14.0545 -0.0720672 -0.00754159)
(14.0416 -0.0701229 -0.00749633)
(14.0304 -0.0695775 -0.00755932)
(14.0189 -0.0703373 -0.00765938)
(14.0108 -0.0760373 -0.00886253)
(13.9966 -0.0777828 -0.00941609)
(13.996 0.0067221 0.000757573)
(14.0112 0.0432686 0.00445798)
(14.0546 0.0822033 0.0083058)
(14.1211 0.114155 0.0114019)
(14.2021 0.133699 0.0133182)
(14.286 0.138101 0.0139104)
(14.3614 0.128333 0.0133125)
(14.4203 0.108342 0.011816)
(14.4595 0.0830499 0.00977269)
(14.4794 0.0565965 0.00748417)
(14.4827 0.031823 0.00517332)
(14.4727 0.0102952 0.00298428)
(14.4531 -0.00742171 0.00099781)
(14.4268 -0.0214002 -0.000752537)
(14.3963 -0.0320259 -0.00226251)
(14.3635 -0.0397813 -0.00353919)
(14.3299 -0.0451342 -0.00459747)
(14.2966 -0.0485025 -0.00545425)
(14.2646 -0.0502665 -0.00612883)
(14.2345 -0.0507875 -0.00664289)
(14.2067 -0.050417 -0.0070245)
(14.1815 -0.0494699 -0.00730104)
(14.1588 -0.0482169 -0.00749619)
(14.1386 -0.0469161 -0.00762893)
(14.1206 -0.0458642 -0.00773636)
(14.1044 -0.0453899 -0.00785704)
(14.0904 -0.0461953 -0.00825413)
(14.0752 -0.0480251 -0.00854568)
(14.0663 -0.0536002 -0.0108906)
(14.0406 -0.0477024 -0.00796407)
(13.9982 0.000718649 0.000331311)
(14.0095 0.0169079 0.00415499)
(14.0464 0.034662 0.00807293)
(14.1066 0.0508636 0.0113288)
(14.1837 0.0628314 0.0136062)
(14.2686 0.068697 0.0147334)
(14.3511 0.067976 0.014732)
(14.4226 0.0616605 0.0137831)
(14.4779 0.0516222 0.0121558)
(14.5151 0.0397864 0.0101205)
(14.535 0.0277201 0.00790516)
(14.5399 0.0164916 0.00568076)
(14.5325 0.00668515 0.0035632)
(14.5159 -0.00147788 0.00161684)
(14.4927 -0.00800865 -0.000131591)
(14.4649 -0.013047 -0.0016717)
(14.4346 -0.0167854 -0.0030076)
(14.4031 -0.0194258 -0.00415488)
(14.3715 -0.0211655 -0.00513366)
(14.3407 -0.0221921 -0.00596297)
(14.3114 -0.0226815 -0.00666805)
(14.2839 -0.0227908 -0.00727982)
(14.2583 -0.0226568 -0.00783662)
(14.2348 -0.0223958 -0.00836986)
(14.2133 -0.0221763 -0.00896898)
(14.1935 -0.0220794 -0.00962079)
(14.1756 -0.0228226 -0.01085)
(14.1571 -0.023845 -0.011256)
(14.1429 -0.0280504 -0.0158375)
(14.1109 -0.0320348 -0.00663744)
(13.8905 0.0751809 0.229199)
(13.2543 0.278906 0.847788)
(11.6548 0.312726 1.60809)
(7.23056 0.404103 3.75273)
(1.66277 -0.123003 -1.42704)
(5.06874 -0.143055 -1.37247)
(7.41275 -0.104577 -0.979106)
(9.06333 -0.0745902 -0.69041)
(10.2731 -0.0554011 -0.49216)
(11.193 -0.0438104 -0.350259)
(11.9129 -0.0366669 -0.240933)
(12.4794 -0.0313125 -0.149209)
(12.9061 -0.0251061 -0.0681528)
(13.1944 -0.0268753 -0.0214801)
(13.3734 -0.0324848 -0.0182372)
(13.4784 -0.0260746 -0.0140569)
(13.557 -0.0217565 -0.0107411)
(13.6214 -0.0188528 -0.00761615)
(13.6762 -0.0169134 -0.0047012)
(13.7237 -0.0156339 -0.00199099)
(13.7658 -0.0148317 0.000547123)
(13.8037 -0.0143976 0.00293249)
(13.8394 -0.0141587 0.00534662)
(13.8691 -0.0141893 0.00742497)
(13.9104 -0.0141071 0.0104766)
(13.9021 0.202557 0.202711)
(13.39 0.72099 0.722078)
(12.1372 1.37645 1.37967)
(8.84455 3.13836 3.12889)
(3.8731 -1.40776 -1.42615)
(6.6596 -1.16572 -1.19703)
(8.39981 -0.827059 -0.851566)
(9.6612 -0.595238 -0.61108)
(10.625 -0.447313 -0.446756)
(11.3832 -0.355602 -0.328672)
(11.9905 -0.297417 -0.236929)
(12.4766 -0.253554 -0.158732)
(12.8519 -0.205895 -0.0878909)
(13.1454 -0.144134 -0.0412802)
(13.3444 -0.102887 -0.0315524)
(13.4538 -0.0789912 -0.0229769)
(13.5353 -0.0644762 -0.0172079)
(13.6014 -0.0552372 -0.012724)
(13.657 -0.0491167 -0.00901954)
(13.7047 -0.0449989 -0.00584747)
(13.7465 -0.0422994 -0.00305293)
(13.7838 -0.0406735 -0.000537622)
(13.8183 -0.0397527 0.00187202)
(13.8474 -0.0393699 0.00403495)
(13.8857 -0.0388418 0.00639123)
(13.9295 0.274362 0.16452)
(13.5812 0.910496 0.545282)
(12.8814 1.80194 0.998691)
(11.8388 4.0603 2.28113)
(9.33908 7.0129 3.7965)
(4.50612 -2.71961 -1.37589)
(8.53216 -2.23968 -1.17462)
(9.4062 -1.56672 -0.834992)
(10.1368 -1.13812 -0.616155)
(10.7851 -0.857089 -0.466124)
(11.3543 -0.671758 -0.359197)
(11.8475 -0.550883 -0.278756)
(12.2692 -0.469915 -0.213331)
(12.6222 -0.406256 -0.154745)
(12.9066 -0.33773 -0.0987122)
(13.1528 -0.239666 -0.0585445)
(13.3416 -0.164562 -0.044624)
(13.4459 -0.127932 -0.0322025)
(13.5263 -0.104632 -0.0239167)
(13.5918 -0.0893407 -0.0178929)
(13.6467 -0.0790511 -0.0132586)
(13.6934 -0.0720338 -0.00952817)
(13.7341 -0.0673412 -0.00640638)
(13.77 -0.0644087 -0.00371455)
(13.803 -0.0627124 -0.00123218)
(13.8307 -0.0618852 0.000960615)
(13.8672 -0.060778 0.00309696)
(13.9629 0.292102 0.126924)
(13.7643 0.922065 0.395774)
(13.5841 1.81957 0.780373)
(13.4057 3.17936 1.22962)
(14.2522 5.24085 1.89315)
(17.7621 6.36419 1.90259)
(14.3273 -4.10178 -1.4168)
(11.938 -2.69457 -0.975934)
(11.4634 -1.85879 -0.674146)
(11.4404 -1.39819 -0.509977)
(11.5933 -1.09552 -0.404046)
(11.8275 -0.881956 -0.327776)
(12.0927 -0.729908 -0.269697)
(12.3593 -0.622973 -0.223151)
(12.6091 -0.545694 -0.182789)
(12.8311 -0.480701 -0.143952)
(13.0189 -0.408914 -0.103677)
(13.2017 -0.300559 -0.0710013)
(13.3669 -0.211989 -0.0543403)
(13.4592 -0.168753 -0.0396436)
(13.5334 -0.139502 -0.0296365)
(13.5951 -0.11942 -0.02246)
(13.6469 -0.105494 -0.0170878)
(13.6911 -0.0957975 -0.0129)
(13.7295 -0.0891942 -0.00950769)
(13.7632 -0.0849765 -0.00667384)
(13.794 -0.0825206 -0.00414406)
(13.8198 -0.0812911 -0.00193948)
(13.8539 -0.0797854 5.03247e-05)
(13.9857 0.276317 0.0941159)
(13.9097 0.82703 0.277361)
(13.884 1.48752 0.492129)
(13.9801 2.28315 0.646462)
(14.7371 2.88369 0.843056)
(16.0806 2.67849 0.717988)
(16.6493 0.481608 0.112743)
(14.7855 -1.07325 -0.329353)
(13.5707 -1.28771 -0.389158)
(12.9934 -1.15409 -0.347297)
(12.7503 -0.996094 -0.299403)
(12.6757 -0.86048 -0.259709)
(12.6944 -0.748923 -0.227504)
(12.7666 -0.659531 -0.200767)
(12.8666 -0.589186 -0.17752)
(12.9762 -0.531579 -0.155415)
(13.0834 -0.476624 -0.1318)
(13.1824 -0.411732 -0.104721)
(13.2784 -0.329758 -0.0757527)
(13.4187 -0.243301 -0.0587336)
(13.4942 -0.198795 -0.0438946)
(13.558 -0.166803 -0.0334287)
(13.6124 -0.143779 -0.0258342)
(13.6588 -0.127253 -0.020151)
(13.6986 -0.11547 -0.0157605)
(13.7333 -0.107307 -0.0122576)
(13.7638 -0.102021 -0.00938804)
(13.7917 -0.0989447 -0.0068873)
(13.8149 -0.0974443 -0.00472181)
(13.846 -0.0956615 -0.00290138)
(13.9994 0.242354 0.0677785)
(13.999 0.700805 0.193628)
(14.0538 1.16987 0.320925)
(14.2877 1.56082 0.431534)
(14.7263 1.6355 0.446371)
(15.1767 1.48011 0.337366)
(15.2611 0.550906 0.118408)
(14.5492 -0.221293 -0.0784823)
(14.0486 -0.504446 -0.152266)
(13.6954 -0.608211 -0.173848)
(13.4785 -0.622549 -0.174226)
(13.3553 -0.600522 -0.167128)
(13.295 -0.566426 -0.157741)
(13.2769 -0.530258 -0.147805)
(13.2858 -0.495179 -0.137457)
(13.3108 -0.459957 -0.125892)
(13.3445 -0.420286 -0.111861)
(13.3845 -0.371358 -0.0946472)
(13.4336 -0.313853 -0.0755761)
(13.4916 -0.259406 -0.057914)
(13.5481 -0.217188 -0.0447273)
(13.5986 -0.185162 -0.0350238)
(13.643 -0.161111 -0.0277781)
(13.6819 -0.143258 -0.0222642)
(13.7157 -0.130219 -0.0179788)
(13.7455 -0.121034 -0.0145696)
(13.7718 -0.115033 -0.0118061)
(13.7961 -0.111574 -0.0094399)
(13.8163 -0.109993 -0.00738764)
(13.8437 -0.10809 -0.00579939)
(14.0067 0.201073 0.0477094)
(14.0447 0.574452 0.134327)
(14.1314 0.923348 0.21429)
(14.3185 1.18502 0.27525)
(14.5919 1.21715 0.278714)
(14.8037 0.927829 0.203283)
(14.7815 0.471078 0.0997845)
(14.5383 0.0441319 -0.00131277)
(14.2369 -0.221275 -0.0602604)
(13.9837 -0.362723 -0.0898072)
(13.7982 -0.427954 -0.102871)
(13.6712 -0.450982 -0.107162)
(13.5898 -0.452053 -0.10703)
(13.542 -0.442179 -0.104604)
(13.5178 -0.42646 -0.10063)
(13.5097 -0.405979 -0.0950188)
(13.5128 -0.379241 -0.0872619)
(13.5253 -0.344369 -0.0770274)
(13.5478 -0.302528 -0.0649572)
(13.58 -0.259894 -0.0529019)
(13.6164 -0.223459 -0.042764)
(13.6519 -0.193946 -0.0347056)
(13.6849 -0.170716 -0.0283926)
(13.7148 -0.152861 -0.0234455)
(13.7416 -0.139493 -0.0195393)
(13.7655 -0.129921 -0.0164175)
(13.787 -0.123635 -0.0139023)
(13.807 -0.120086 -0.0117825)
(13.8237 -0.118662 -0.00992803)
(13.8469 -0.116842 -0.00865381)
(14.0097 0.159834 0.0330703)
(14.063 0.459036 0.092939)
(14.156 0.728784 0.145612)
(14.3082 0.921236 0.182623)
(14.4971 0.950664 0.185584)
(14.6351 0.771977 0.14653)
(14.6389 0.476567 0.0872098)
(14.5124 0.174899 0.0268385)
(14.3282 -0.0482039 -0.016039)
(14.1508 -0.193298 -0.0432118)
(14.0031 -0.280039 -0.0592106)
(13.889 -0.327607 -0.0679526)
(13.8052 -0.350645 -0.0722695)
(13.7458 -0.35873 -0.073858)
(13.7053 -0.357274 -0.0735225)
(13.6788 -0.34854 -0.0714747)
(13.6631 -0.332715 -0.0675911)
(13.657 -0.309473 -0.0617784)
(13.6606 -0.280042 -0.0544108)
(13.6734 -0.24825 -0.0465359)
(13.6923 -0.218857 -0.0392989)
(13.7135 -0.193524 -0.0331115)
(13.735 -0.172601 -0.0280049)
(13.7556 -0.155918 -0.0238617)
(13.7748 -0.143094 -0.020523)
(13.7924 -0.133758 -0.0178355)
(13.8086 -0.127619 -0.015685)
(13.8239 -0.124278 -0.0139104)
(13.8368 -0.123263 -0.0123358)
(13.8555 -0.121761 -0.0114634)
(14.0099 0.12263 0.0227321)
(14.0656 0.359677 0.0645294)
(14.1538 0.574368 0.100891)
(14.2797 0.726142 0.125726)
(14.4213 0.760195 0.129525)
(14.5257 0.652796 0.108709)
(14.5468 0.455254 0.0738509)
(14.484 0.237549 0.0359266)
(14.3726 0.0557011 0.00516258)
(14.2508 -0.0784285 -0.0172231)
(14.1381 -0.169932 -0.0324736)
(14.0423 -0.228517 -0.0423526)
(13.9648 -0.263904 -0.0485141)
(13.9038 -0.283428 -0.0521092)
(13.8567 -0.291921 -0.0538074)
(13.8207 -0.292008 -0.0538976)
(13.7941 -0.284747 -0.0524325)
(13.7761 -0.270651 -0.0494415)
(13.7666 -0.25095 -0.0451762)
(13.7653 -0.228247 -0.0402435)
(13.7703 -0.205763 -0.0353453)
(13.7793 -0.185233 -0.0308757)
(13.7902 -0.167469 -0.0269981)
(13.802 -0.152776 -0.0237399)
(13.8138 -0.141176 -0.0210606)
(13.8251 -0.132593 -0.018893)
(13.8358 -0.12697 -0.0171836)
(13.8464 -0.124089 -0.015828)
(13.8553 -0.123711 -0.0146022)
(13.8692 -0.122765 -0.0142203)
(14.0085 0.0909209 0.015609)
(14.0598 0.276816 0.0452816)
(14.1389 0.450734 0.0715536)
(14.2451 0.575916 0.0897203)
(14.3595 0.614224 0.0942811)
(14.4482 0.551489 0.0832708)
(14.4823 0.418055 0.0621735)
(14.4586 0.259265 0.037473)
(14.3947 0.113977 0.015312)
(14.3138 -0.00303523 -0.00248818)
(14.2306 -0.0900744 -0.0158626)
(14.1535 -0.151129 -0.0254621)
(14.0858 -0.191946 -0.0321504)
(14.0283 -0.217774 -0.0366497)
(13.98 -0.232536 -0.0394527)
(13.9401 -0.238744 -0.040828)
(13.9076 -0.237795 -0.040891)
(13.8822 -0.230599 -0.0397236)
(13.8639 -0.218339 -0.0375113)
(13.8526 -0.202889 -0.034624)
(13.8473 -0.186494 -0.0315049)
(13.8463 -0.170674 -0.0284691)
(13.8483 -0.156364 -0.0257044)
(13.8522 -0.144098 -0.0233029)
(13.857 -0.134157 -0.0212946)
(13.8624 -0.126689 -0.0196741)
(13.8679 -0.121849 -0.0184399)
(13.8737 -0.119596 -0.0175426)
(13.8786 -0.120022 -0.0167147)
(13.8876 -0.119838 -0.0169079)
(14.0062 0.06489 0.0107945)
(14.0498 0.208884 0.0324083)
(14.1189 0.350402 0.0522736)
(14.2106 0.455308 0.0665056)
(14.3091 0.495375 0.071488)
(14.3908 0.461113 0.0659573)
(14.4354 0.371134 0.0529008)
(14.4378 0.25547 0.0363265)
(14.4068 0.141649 0.0201429)
(14.3563 0.0436156 0.00608314)
(14.2974 -0.0340955 -0.00530385)
(14.2374 -0.092163 -0.0141137)
(14.1806 -0.133552 -0.0207249)
(14.1287 -0.161746 -0.0255547)
(14.0824 -0.179745 -0.02894)
(14.0417 -0.189703 -0.0310938)
(14.0065 -0.193044 -0.0321402)
(13.9768 -0.190801 -0.0321753)
(13.9528 -0.184059 -0.0313432)
(13.9346 -0.174223 -0.0298837)
(13.9216 -0.162898 -0.028087)
(13.9129 -0.151326 -0.0261922)
(13.9076 -0.140386 -0.0243719)
(13.9047 -0.130677 -0.0227386)
(13.9035 -0.122603 -0.0213593)
(13.9034 -0.116456 -0.0202684)
(13.904 -0.11255 -0.0195058)
(13.9053 -0.110997 -0.0190679)
(13.9064 -0.112297 -0.0186498)
(13.9104 -0.113011 -0.0194902)
(14.0031 0.0441637 0.00756756)
(14.0382 0.153663 0.0239131)
(14.0981 0.267357 0.0396861)
(14.1793 0.354158 0.0514805)
(14.2687 0.39288 0.0566325)
(14.3481 0.376803 0.0542509)
(14.4014 0.317391 0.0460533)
(14.4227 0.234558 0.0346198)
(14.4155 0.147767 0.0225611)
(14.3883 0.0688153 0.0113566)
(14.3491 0.00300586 0.00169564)
(14.3042 -0.0485667 -0.0062432)
(14.2579 -0.0870849 -0.0125575)
(14.2126 -0.114669 -0.0174583)
(14.1697 -0.133446 -0.0211535)
(14.13 -0.145136 -0.0237985)
(14.094 -0.151013 -0.025503)
(14.062 -0.152067 -0.0263588)
(14.0345 -0.149244 -0.026481)
(14.0115 -0.143615 -0.0260347)
(13.993 -0.136345 -0.0252185)
(13.9785 -0.1284 -0.0242132)
(13.9673 -0.120528 -0.0231662)
(13.9588 -0.113291 -0.0221902)
(13.9524 -0.107118 -0.0213699)
(13.9475 -0.102362 -0.0207626)
(13.9437 -0.0994354 -0.0204484)
(13.9408 -0.0985666 -0.0204305)
(13.9384 -0.100681 -0.0204153)
(13.9372 -0.102311 -0.0219414)
(13.9998 0.0281352 0.00535785)
(14.0266 0.108817 0.0183744)
(14.0791 0.196784 0.0316222)
(14.1532 0.265573 0.0419101)
(14.2376 0.300011 0.0471338)
(14.3172 0.295244 0.0466424)
(14.3781 0.258011 0.0414856)
(14.4138 0.201068 0.0333841)
(14.4248 0.137794 0.0241634)
(14.416 0.0774151 0.0150503)
(14.393 0.0249151 0.00674154)
(14.3612 -0.0178488 -0.000447211)
(14.3245 -0.0510054 -0.00645499)
(14.2859 -0.0756645 -0.0113504)
(14.2471 -0.0932146 -0.0152437)
(14.2094 -0.104928 -0.0182389)
(14.1738 -0.111837 -0.0204235)
(14.1408 -0.114786 -0.0218777)
(14.1111 -0.114552 -0.0226941)
(14.0849 -0.11194 -0.0229937)
(14.0625 -0.107786 -0.022919)
(14.0435 -0.102811 -0.022609)
(14.0277 -0.0975994 -0.0221879)
(14.0146 -0.0926162 -0.0217604)
(14.0038 -0.0882475 -0.0214209)
(13.9947 -0.0848416 -0.0212364)
(13.9871 -0.0828366 -0.0213411)
(13.9803 -0.0825901 -0.0216752)
(13.9747 -0.0852606 -0.0221533)
(13.9679 -0.0876657 -0.0244529)
(13.997 0.0159861 0.00369344)
(14.0169 0.0721226 0.0148515)
(14.0641 0.134956 0.0267244)
(14.1334 0.185055 0.036165)
(14.2152 0.212758 0.0415145)
(14.2961 0.214494 0.0422884)
(14.3639 0.193585 0.0391432)
(14.4114 0.157575 0.0332648)
(14.4372 0.115035 0.0259903)
(14.4435 0.0725333 0.0183448)
(14.4344 0.0341327 0.0110015)
(14.4141 0.0017594 0.00434266)
(14.3864 -0.0241525 -0.00146738)
(14.3542 -0.0440415 -0.00639969)
(14.3198 -0.0587066 -0.0104922)
(14.2846 -0.0689883 -0.0138055)
(14.2501 -0.0756335 -0.0164035)
(14.2169 -0.0792827 -0.0183525)
(14.186 -0.0805184 -0.0197281)
(14.1577 -0.079913 -0.020623)
(14.1324 -0.0780359 -0.0211453)
(14.1101 -0.0753893 -0.0214047)
(14.0906 -0.0723865 -0.0215057)
(14.0737 -0.0693691 -0.0215405)
(14.0592 -0.0666246 -0.0216071)
(14.0465 -0.0644497 -0.0217545)
(14.0354 -0.063194 -0.0222077)
(14.025 -0.0633867 -0.0226756)
(14.0165 -0.0658633 -0.0240548)
(14.0039 -0.0689533 -0.0268814)
(13.9961 0.00632179 0.00214748)
(14.0109 0.0415295 0.0129205)
(14.0535 0.0791727 0.0242196)
(14.1188 0.110101 0.0333422)
(14.1984 0.129126 0.0390561)
(14.2811 0.133624 0.0409273)
(14.3557 0.124454 0.0393046)
(14.4143 0.105378 0.0350237)
(14.4536 0.0810911 0.0291038)
(14.474 0.0555953 0.0224365)
(14.478 0.0316592 0.0156839)
(14.469 0.0108273 0.00928009)
(14.4503 -0.00632385 0.0034683)
(14.4248 -0.0198416 -0.00164627)
(14.3952 -0.0300872 -0.00604418)
(14.3632 -0.0375255 -0.00974865)
(14.3303 -0.0426147 -0.0128026)
(14.2977 -0.045771 -0.0152598)
(14.2663 -0.0473713 -0.0171828)
(14.2366 -0.0477721 -0.0186443)
(14.2092 -0.047313 -0.0197283)
(14.1842 -0.0462988 -0.0205207)
(14.1617 -0.0449719 -0.0211034)
(14.1416 -0.043544 -0.021536)
(14.1237 -0.0421671 -0.0218982)
(14.1078 -0.0410768 -0.0221352)
(14.0935 -0.0404405 -0.022691)
(14.08 -0.0409703 -0.0224483)
(14.0674 -0.0425213 -0.0254346)
(14.051 -0.0464378 -0.0245504)
(13.9983 0.000615259 0.000977735)
(14.0094 0.0161842 0.0118978)
(14.0454 0.0333835 0.0232458)
(14.1045 0.0491096 0.0327563)
(14.1802 0.0607987 0.0394614)
(14.2637 0.0666456 0.0428598)
(14.3451 0.0661344 0.0429891)
(14.4159 0.0601919 0.0403514)
(14.4708 0.0505978 0.0357114)
(14.508 0.0392083 0.0298543)
(14.5283 0.0275484 0.023449)
(14.5338 0.0166673 0.0170011)
(14.5272 0.00715 0.0108486)
(14.5114 -0.000772441 0.00519214)
(14.4889 -0.00710205 0.000127517)
(14.462 -0.011969 -0.00431822)
(14.4324 -0.0155564 -0.00814881)
(14.4015 -0.0180628 -0.0113974)
(14.3706 -0.0196858 -0.0141179)
(14.3404 -0.0206156 -0.016371)
(14.3115 -0.0210268 -0.0182224)
(14.2843 -0.0210815 -0.0197426)
(14.259 -0.0209105 -0.0210141)
(14.2358 -0.0206416 -0.0221031)
(14.2146 -0.0203662 -0.0231916)
(14.1954 -0.0202756 -0.024262)
(14.1771 -0.0204698 -0.0262115)
(14.1608 -0.0215967 -0.027085)
(14.1397 -0.0231918 -0.033447)
(14.1239 -0.0279062 -0.0180318)
(13.9145 0.0601489 0.30481)
(13.5021 0.203869 1.03462)
(12.6301 0.221484 2.05776)
(10.7669 0.255685 4.51322)
(1.58223 -0.0222241 -1.30376)
(7.3227 -0.141803 -2.68324)
(8.61856 -0.102855 -1.84193)
(9.59839 -0.0746122 -1.31742)
(10.4132 -0.0554446 -0.972964)
(11.0998 -0.0428593 -0.730305)
(11.6845 -0.0347212 -0.546149)
(12.1851 -0.0292447 -0.394661)
(12.6089 -0.0248255 -0.259664)
(12.9498 -0.0196893 -0.13582)
(13.2041 -0.0210541 -0.0614877)
(13.3778 -0.0269682 -0.0448384)
(13.4776 -0.0225093 -0.0325266)
(13.5539 -0.0191993 -0.0237948)
(13.6167 -0.0168055 -0.0169132)
(13.6698 -0.0151137 -0.011238)
(13.7157 -0.013938 -0.00633266)
(13.7561 -0.0131505 -0.00193389)
(13.7922 -0.0126694 0.00211861)
(13.8258 -0.0123435 0.00606792)
(13.8535 -0.0122606 0.00975739)
(13.8917 -0.0121964 0.0142617)
(13.9296 0.164366 0.274352)
(13.582 0.544274 0.911056)
(12.884 0.99467 1.80398)
(11.8486 2.27022 4.05965)