/*--------------------------------*- C++ -*----------------------------------*\
  =========                 |
  \\      /  F ield         | OpenFOAM: The Open Source CFD Toolbox
   \\    /   O peration     | Website:  https://openfoam.org
    \\  /    A nd           | Version:  7
     \\/     M anipulation  |
\*---------------------------------------------------------------------------*/
FoamFile
{
    version     2.0;
    format      ascii;
    class       volScalarField;
    location    "3";
    object      thickness;
}
// * * * * * * * * * * * * * * * * * * * * * * * * * * * * * * * * * * * * * //

dimensions      [0 0 0 0 0 0 0];

internalField   uniform 0;

boundaryField
{
    inletWall
    {
        type            fixedValue;
        value           uniform 0;
    }
    Wall
    {
        type            fixedValue;
        value           uniform 0;
    }
    sym
    {
        type            symmetry;
    }
    outletWall
    {
        type            fixedValue;
        value           uniform 0;
    }
    sphere
    {
        type            fixedValue;
        value           uniform 0;
    }
}


// ************************************************************************* //
