/*--------------------------------*- C++ -*----------------------------------*\
  =========                 |
  \\      /  F ield         | OpenFOAM: The Open Source CFD Toolbox
   \\    /   O peration     | Website:  https://openfoam.org
    \\  /    A nd           | Version:  7
     \\/     M anipulation  |
\*---------------------------------------------------------------------------*/
FoamFile
{
    version     2.0;
    format      ascii;
    class       volScalarField;
    location    "200";
    object      k;
}
// * * * * * * * * * * * * * * * * * * * * * * * * * * * * * * * * * * * * * //

dimensions      [0 2 -2 0 0 0 0];

internalField   nonuniform List<scalar> 
27370
(
348.946
348.706
350.049
309.659
17.8262
34.8267
50.7936
65.6419
77.502
85.9933
91.9015
96.3888
99.982
100.898
98.3186
95.3661
92.296
89.1902
86.0985
83.0535
80.0767
77.1855
74.4014
71.793
69.6952
348.686
347.411
348.33
324.554
21.4821
47.0682
65.4462
78.1191
86.7884
92.5757
96.4965
99.5486
102.072
102.361
99.4483
96.1687
92.8695
89.5955
86.3761
83.2324
80.1788
77.2272
74.3957
71.7496
69.6236
348.211
345.455
344.801
335.396
2.48091
57.9892
84.4105
96.4453
102.118
104.691
105.657
105.899
106.088
106.324
105.032
101.266
97.4899
93.8172
90.2565
86.8143
83.4961
80.3053
77.2458
74.3288
71.6144
69.4361
347.639
343.226
338.311
332.285
298.714
20.6821
118.964
129.004
130.59
129.297
126.573
123.193
119.652
116.326
113.529
111.218
108.052
103.296
98.9864
94.8853
90.9817
87.2658
83.7295
80.3654
77.1682
74.1417
71.3385
69.0894
347.066
341.127
334.434
328.229
311.834
279.895
232.737
211.613
193.413
178.629
166.547
156.307
147.333
139.324
132.154
125.805
120.299
115.502
110.788
105.133
100.327
95.8054
91.5539
87.555
83.7906
80.2432
76.8993
73.7551
70.8549
68.5238
346.555
339.351
331.228
320.66
306.063
290.129
265.141
239.08
218.943
201.157
185.657
172.129
160.24
149.718
140.37
132.067
124.715
118.175
112.198
106.523
101.244
96.3354
91.7665
87.5077
83.5318
79.8138
76.3332
73.0792
70.0861
67.6685
346.123
337.879
328.638
317.516
303.62
286.349
266.978
246.776
227.619
209.969
193.983
179.627
166.769
155.254
144.936
135.695
127.429
120.023
113.324
107.164
101.494
96.2645
91.4326
86.9593
82.8097
78.9523
75.3609
72.0186
68.9484
66.4454
345.762
336.616
326.383
314.558
300.685
284.604
266.928
248.545
230.497
213.386
197.508
182.964
169.742
157.771
146.956
137.201
128.414
120.499
113.342
106.823
100.865
95.4021
90.3816
85.7566
81.4867
77.5353
73.8721
70.4747
67.3535
64.7709
345.457
335.441
324.169
311.431
297.102
281.242
264.277
246.809
229.534
212.953
197.369
182.931
169.672
157.57
146.569
136.594
127.564
119.397
112.002
105.284
99.1628
93.5716
88.4508
83.7501
79.4252
75.4367
71.7511
68.3418
65.206
62.5535
345.19
334.21
321.66
307.664
292.423
276.174
259.282
242.196
225.388
209.238
194
179.815
166.723
154.718
143.763
133.797
124.749
116.543
109.102
102.344
96.1962
90.5912
85.4696
80.7796
76.4756
72.5167
68.8678
65.4993
62.3972
59.688
344.944
332.713
318.37
302.565
285.896
268.778
251.545
234.511
217.984
202.212
187.371
173.561
160.803
149.088
138.383
128.632
119.765
111.715
104.407
97.7709
91.7375
86.2439
81.232
76.6508
72.455
68.6034
65.0611
61.796
58.7911
56.0439
344.702
330.553
313.402
294.907
276.198
257.813
239.997
222.888
206.616
191.285
176.971
163.707
151.483
140.278
130.045
120.725
112.251
104.556
97.5708
91.2293
85.4679
80.2273
75.4525
71.0947
67.1102
63.4585
60.1075
57.0199
54.1978
51.4408
344.434
326.755
304.749
282.205
260.797
240.934
222.568
205.541
189.753
175.131
161.634
149.219
137.841
127.445
117.974
109.36
101.539
94.4424
88.0064
82.1683
76.8696
72.0556
67.6755
63.6837
60.0401
56.705
53.6537
50.8323
48.3119
45.5949
343.977
318.197
287.103
258.754
234.369
213.44
195.162
178.921
164.311
151.047
138.974
127.977
117.966
108.862
100.595
93.0967
86.3024
80.1493
74.5782
69.5325
64.96
60.8125
57.0446
53.6163
50.4933
47.6351
45.0381
42.5972
40.5491
37.9771
341.91
291.587
243.969
209.577
184.12
164.492
148.509
134.989
123.222
112.773
103.399
94.948
87.3091
80.3893
74.1278
68.4679
63.3554
58.7395
54.5717
50.8071
47.4033
44.3235
41.5308
38.9947
36.692
34.5739
32.6956
30.8178
29.4937
27.3245
317.06
174.861
118.147
91.1384
75.6272
65.5156
58.1255
52.2797
47.4025
43.1854
39.4649
36.1457
33.1725
30.5046
28.1
25.9302
23.9721
22.2051
20.6107
19.1709
17.8713
16.693
15.6325
14.6557
13.7981
12.9583
12.299
11.5147
11.0625
10.2046
348.687
347.414
348.339
324.452
20.8186
46.6429
65.2467
78.0298
86.7467
92.5549
96.4851
99.542
102.068
102.358
99.446
96.1669
92.8682
89.5944
86.3752
83.2317
80.1782
77.2267
74.3952
71.7492
69.6233
348.445
346.361
346.741
330.718
31.4296
61.479
78.5724
88.5344
94.5526
98.202
100.519
102.371
103.97
103.686
100.473
96.9055
93.399
89.9696
86.6311
83.3947
80.2684
77.2597
74.383
71.701
69.5479
348.005
344.659
343.543
333.586
104.416
17.271
79.28
98.1425
106.118
109.269
110.056
109.684
108.9
108.278
107.855
106.128
102.132
98.1207
94.2735
90.5787
87.0318
83.6313
80.3753
77.2639
74.3058
71.5583
69.3547
347.479
342.633
337.199
331.664
306.459
93.2918
60.1799
139.1
140.895
138.652
135.134
130.983
126.601
122.306
118.385
115.095
112.362
108.916
103.987
99.4947
95.2537
91.24
87.4365
83.8303
80.4101
77.168
74.1054
71.2729
69.0009
346.95
340.727
333.755
327.599
312.058
283.497
243.806
220.165
199.994
183.918
170.804
159.744
150.123
141.595
134
127.292
121.469
116.388
111.439
105.659
100.715
96.0844
91.7456
87.6761
83.8544
80.2605
76.8789
73.7042
70.7788
68.4274
346.474
339.083
330.776
320.148
305.823
290.673
266.863
241.47
221.471
203.605
187.909
174.136
161.993
151.226
141.648
133.132
125.58
118.853
112.71
106.905
101.523
96.5317
91.8953
87.5811
83.5596
79.8042
76.293
73.0139
69.9999
67.5646
346.066
337.698
328.338
317.165
303.364
286.431
267.497
247.697
228.759
211.187
195.185
180.756
167.797
156.167
145.73
136.371
127.989
120.472
113.67
107.423
101.679
96.3883
91.5056
86.99
82.8052
78.9185
75.303
71.9407
68.8534
66.3354
345.723
336.492
326.176
314.308
300.469
284.532
267.064
248.897
231.009
213.987
198.143
183.591
170.333
158.31
147.434
137.614
128.76
120.778
113.557
106.981
100.971
95.4654
90.4078
85.7515
81.455
77.4814
73.7996
70.3866
67.2519
64.6568
345.431
335.354
324.021
311.243
296.917
281.119
264.255
246.908
229.734
213.223
197.678
183.253
169.988
157.866
146.835
136.826
127.759
119.552
112.118
105.363
99.2081
93.587
88.4402
83.7168
79.3726
75.3675
71.6679
68.2469
65.1008
62.4378
345.172
334.148
321.55
307.517
292.262
276.033
259.19
242.169
225.423
209.323
194.118
179.951
166.865
154.855
143.888
133.906
124.838
116.61
109.146
102.366
96.1962
90.5714
85.432
80.7264
76.4086
72.4378
68.7787
65.4016
62.2919
59.5741
344.931
332.668
318.286
302.444
285.752
268.632
251.418
234.418
217.927
202.19
187.374
173.582
160.835
149.124
138.417
128.66
119.785
111.723
104.403
97.7535
91.7072
86.2011
81.1777
76.586
72.3808
68.5208
64.9714
61.7
58.6897
55.9355
344.694
330.52
313.336
294.806
276.068
257.668
239.854
222.759
206.508
191.2
176.907
163.659
151.448
140.251
130.022
120.703
112.227
104.528
97.5376
91.1896
85.421
80.1732
75.3914
71.0268
67.0361
63.3788
60.0228
56.9307
54.105
51.3423
344.429
326.732
304.697
282.119
260.678
240.793
222.419
205.395
189.62
175.013
161.534
149.135
137.77
127.385
117.921
109.313
101.494
94.3985
87.9615
82.1212
76.8193
72.0015
67.6174
63.6215
59.9739
56.6349
53.5801
50.7554
48.2327
45.5109
343.974
318.181
287.061
258.678
234.261
213.306
195.015
178.773
164.17
150.919
138.862
127.881
117.884
108.793
100.535
93.0451
86.2562
80.1065
74.5371
69.4918
64.9185
60.7693
56.9993
53.5685
50.4428
47.5817
44.9822
42.5385
40.4888
37.9128
341.909
291.577
243.934
209.512
184.024
164.374
148.377
134.856
123.096
112.659
103.3
94.864
87.2399
80.3332
74.0827
68.4314
63.3255
58.7141
54.5491
50.7858
47.3823
44.3017
41.5078
38.9698
36.6651
34.5446
32.6644
30.7838
29.4586
27.2858
317.06
174.856
118.127
91.1046
75.5796
65.4585
58.0634
52.2177
47.3445
43.1338
39.4209
36.1097
33.1432
30.4814
28.0821
25.9166
23.9618
22.1974
20.6047
19.166
17.8668
16.6886
15.6278
14.6505
13.7923
12.9515
12.2916
11.5059
11.0533
10.194
348.212
345.462
344.818
335.453
3.36142
57.793
84.0679
96.2164
101.986
104.616
105.613
105.871
106.071
106.312
105.024
101.26
97.4853
93.8136
90.2535
86.8119
83.4941
80.3036
77.2443
74.3275
71.6133
69.4351
348.006
344.662
343.552
333.581
95.1849
15.6868
79.1475
97.9806
106.001
109.197
110.013
109.657
108.883
108.267
107.847
106.123
102.128
98.1178
94.2712
90.5768
87.0303
83.63
80.3742
77.263
74.305
71.5576
69.354
347.642
343.275
341.031
333.003
292.416
109.01
122.86
126.2
126.005
124.066
121.286
118.23
115.33
112.947
111.019
108.177
103.538
99.1599
95.0222
91.0968
87.3663
83.8194
80.4466
77.2423
74.2099
71.4023
69.1514
347.194
341.602
335.325
329.687
311.061
263.375
198.09
183.111
173.933
163.79
155.079
147.441
140.472
134.034
128.149
122.927
118.509
114.774
110.545
105.119
100.332
95.8533
91.6479
87.6896
83.9584
80.4377
77.1146
73.9867
71.1007
68.7857
346.741
340.009
332.453
322.31
311.717
288.455
259.26
232.883
211.276
193.557
178.863
166.416
155.628
146.127
137.708
130.281
123.804
118.125
112.699
106.526
101.35
96.5305
92.0376
87.8423
83.9178
80.2402
76.7906
73.5606
70.5893
68.1997
346.325
338.594
329.943
319.253
305.156
286.976
266.217
245.153
225.429
207.549
191.617
177.495
164.957
153.793
143.832
134.951
127.049
119.991
113.562
107.531
101.971
96.8338
92.077
87.6633
83.5599
79.737
76.1705
72.846
69.7936
67.3251
345.963
337.364
327.779
316.511
302.831
286.44
268.131
249.104
230.572
213.175
197.183
182.657
169.54
157.721
147.084
137.521
128.936
121.221
114.239
107.835
101.961
96.5621
91.5885
86.9967
82.7484
78.809
75.1498
71.7512
68.633
66.0865
345.651
336.258
325.785
313.826
300.027
284.321
267.189
249.405
231.803
214.952
199.181
184.628
171.319
159.211
148.233
138.3
129.329
121.228
113.893
107.214
101.115
95.5311
90.4072
85.6945
81.3503
77.3367
73.6214
70.1804
67.0214
64.4022
345.38
335.187
323.735
310.873
296.538
280.834
264.138
246.998
230.004
213.622
198.153
183.757
170.487
158.334
147.255
137.187
128.054
119.779
112.276
105.455
99.2412
93.567
88.3736
83.6099
79.231
75.1965
71.4721
68.0301
64.8658
62.1828
345.137
334.026
321.334
307.221
291.928
275.724
258.957
242.044
225.408
209.398
194.256
180.124
167.053
155.039
144.054
134.044
124.943
116.678
109.174
102.355
96.1476
90.4883
85.3177
80.5844
76.2425
72.2508
68.574
65.1818
62.0589
59.3248
344.907
332.578
318.118
302.199
285.453
268.318
251.128
234.179
217.752
202.074
187.307
173.55
160.824
149.123
138.416
128.651
119.762
111.683
104.343
97.6723
91.6043
86.0772
81.0342
76.4246
72.2034
68.3294
64.7677
61.4859
58.4667
55.6993
344.678
330.454
313.202
294.598
275.796
257.358
239.536
222.461
206.244
190.976
176.719
163.504
151.318
140.138
129.919
120.604
112.128
104.424
97.4268
91.0693
85.2899
80.0308
75.2377
70.8624
66.8617
63.1953
59.8313
56.732
53.9008
51.1276
344.418
326.684
304.59
281.94
260.431
240.495
222.095
205.071
189.313
174.733
161.285
148.916
137.578
127.215
117.768
109.172
101.36
94.2687
87.8326
81.9906
76.6852
71.8626
67.4729
63.4711
59.8176
56.4728
53.4128
50.583
48.0572
45.3272
343.969
318.149
286.976
258.524
234.036
213.026
194.702
178.451
163.857
150.628
138.6
127.648
117.679
108.612
100.376
92.902
86.1257
79.9849
74.4212
69.3788
64.8061
60.6559
56.8837
53.4498
50.3205
47.4556
44.8526
42.4046
40.3533
37.7707
341.907
291.557
243.867
209.383
183.833
164.133
148.106
134.577
122.826
112.408
103.075
94.667
87.0708
80.1895
73.9609
68.3276
63.2356
58.6345
54.4766
50.7177
47.3163
44.2361
41.4411
38.9011
36.594
34.4702
32.5874
30.7024
29.3762
27.1979
317.06
174.847
118.093
91.0422
75.4898
65.3485
57.9412
52.0931
47.2251
43.0246
39.325
36.0279
33.074
30.4237
28.0345
25.8776
23.9297
22.1706
20.5818
19.1457
17.8482
16.6707
15.6101
14.6322
13.7734
12.9312
12.2705
11.483
11.0295
10.1684
347.64
343.234
338.332
332.319
298.384
20.3733
118.676
128.793
130.397
129.143
126.464
123.119
119.601
116.291
113.505
111.2
108.039
103.287
98.9786
94.879
90.9765
87.2615
83.7259
80.3623
77.1656
74.1394
71.3364
69.0875
347.48
342.639
337.213
331.69
306.378
94.2719
59.2891
138.809
140.728
138.517
135.025
130.904
126.545
122.267
118.357
115.075
112.347
108.906
103.979
99.4886
95.2487
91.2359
87.4331
83.8273
80.4076
77.1658
74.1035
71.2712
68.9993
347.195
341.604
335.33
329.698
311.063
263.111
198.062
183.003
173.853
163.731
155.03
147.4
140.44
134.01
128.131
122.914
118.5
114.766
110.539
105.115
100.328
95.8506
91.6456
87.6876
83.9568
80.4362
77.1134
73.9856
71.0998
68.7848
346.842
340.364
333.098
323.123
312.027
286.499
252.629
223.982
202.947
186.187
172.646
161.335
151.557
142.921
135.25
128.504
122.703
117.703
112.454
106.384
101.261
96.4999
92.0595
87.908
84.0195
80.371
76.9447
73.7332
70.7778
68.4044
346.478
339.121
330.893
320.506
306.168
291.193
267.41
243.533
222.164
203.674
187.806
174.104
162.135
151.577
142.216
133.931
126.647
120.214
114.207
107.485
102.036
96.9868
92.3033
87.9503
83.8959
80.112
76.5758
73.2751
70.2442
67.8027
346.134
337.968
328.875
317.992
304.3
287.336
268.185
248.416
229.369
211.71
195.674
181.253
168.326
156.738
146.349
137.045
128.727
121.271
114.5
108.201
102.425
97.1085
92.2018
87.6634
83.4565
79.5482
75.9115
72.5293
69.4276
66.9138
345.826
336.919
327.031
315.597
302.051
286.208
268.663
250.406
232.399
215.276
199.363
184.774
171.504
159.483
148.618
138.817
129.989
122.036
114.832
108.239
102.206
96.6728
91.586
86.8991
82.5711
78.5654
74.8514
71.4074
68.2497
65.6644
345.554
335.938
325.242
313.134
299.351
283.881
267.135
249.781
232.528
215.908
200.252
185.725
172.373
160.178
149.085
139.022
129.911
121.667
114.194
107.39
101.181
95.5023
90.2966
85.5141
81.1109
77.0477
73.2912
69.8159
66.6266
63.9749
345.311
334.952
323.326
310.325
295.945
280.323
263.81
246.905
230.129
213.913
198.549
184.203
170.941
158.761
147.631
137.497
128.29
119.934
112.349
105.45
99.1649
93.4268
88.1772
83.3649
78.9442
74.8743
71.1203
67.6536
64.4671
61.7574
345.087
333.851
321.015
306.77
291.397
275.191
258.496
241.701
225.193
209.296
194.237
180.158
167.114
155.104
144.106
134.07
124.934
116.628
109.08
102.216
95.9656
90.2665
85.0599
80.2947
75.9251
71.9096
68.2127
64.8037
61.666
58.9103
344.872
332.445
317.863
301.818
284.972
267.787
250.601
233.701
217.343
201.738
187.034
173.325
160.634
148.953
138.255
128.488
119.59
111.495
104.136
97.4438
91.3534
85.8044
80.7407
76.1123
71.8742
67.9854
64.4112
61.1188
58.0907
55.3065
344.654
330.354
312.997
294.271
275.357
256.841
238.984
221.914
205.729
190.506
176.298
163.126
150.978
139.827
129.63
120.328
111.859
104.157
97.1571
90.7938
85.0065
79.7382
74.9356
70.5509
66.5414
62.8669
59.4959
56.3904
53.5551
50.769
344.403
326.612
304.425
281.658
260.031
240.002
221.546
204.503
188.755
174.205
160.795
148.467
137.168
126.84
117.422
108.849
101.055
93.9757
87.5477
81.71
76.4059
71.5826
67.1907
63.1858
59.5288
56.1803
53.1171
50.2836
47.7569
45.0175
343.961
318.1
286.844
258.282
233.679
212.573
194.185
177.907
163.313
150.106
138.113
127.2
117.271
108.242
100.039
92.5937
85.8406
79.7181
74.168
69.1353
64.5691
60.4227
56.6522
53.2186
50.0886
47.2222
44.6178
42.1669
40.1166
37.527
341.904
291.527
243.766
209.187
183.537
163.756
147.673
134.121
122.371
111.974
102.674
94.3024
86.745
79.9007
73.7053
68.1005
63.032
58.4496
54.3059
50.5574
47.1631
44.0873
41.2948
38.7555
36.4481
34.3228
32.4393
30.5505
29.2256
27.0417
317.059
174.834
118.043
90.9516
75.3574
65.1833
57.7542
51.8977
47.0327
42.8433
39.16
35.8812
32.9446
30.3108
27.9365
25.7925
23.8556
22.1053
20.5235
19.0926
17.7989
16.6239
15.5648
14.5875
13.7291
12.886
12.2258
11.4358
10.9841
10.1191
347.068
341.133
334.449
328.253
311.853
279.755
232.22
211.354
193.252
178.505
166.441
156.216
147.259
139.266
132.109
125.77
120.272
115.481
110.772
105.12
100.317
95.7966
91.5465
87.5487
83.7852
80.2385
76.8952
73.7515
70.8517
68.5209
346.951
340.732
333.766
327.619
312.084
284.237
243.509
219.799
199.865
183.823
170.723
159.673
150.064
141.548
133.963
127.263
121.446
116.37
111.425
105.649
100.706
96.0768
91.7391
87.6706
83.8497
80.2564
76.8753
73.7011
70.776
68.4248
346.742
340.012
332.46
322.321
311.733
288.428
259.204
232.829
211.225
193.509
178.819
166.376
155.593
146.099
137.685
130.262
123.788
118.112
112.689
106.519
101.344
96.525
92.0329
87.8383
83.9143
80.2371
76.788
73.5583
70.5871
68.1977
346.478
339.122
330.895
320.51
306.173
291.192
267.4
243.521
222.15
203.658
187.791
174.089
162.122
151.565
142.206
133.923
126.64
120.208
114.202
107.481
102.032
96.984
92.3009
87.9482
83.8941
80.1104
76.5744
73.2738
70.2431
67.8016
346.197
338.188
329.274
318.539
304.912
292.055
271.743
250.479
230.252
211.868
195.496
180.997
168.141
156.703
146.502
137.413
129.338
122.149
115.587
108.272
102.551
97.2686
92.388
87.8702
83.6795
79.7836
76.1562
72.7809
69.686
67.1836
345.924
337.278
327.696
316.531
303.093
287.052
269.22
250.645
232.385
215.107
199.13
184.548
171.331
159.388
148.617
138.919
130.201
122.355
115.248
108.686
102.694
97.1939
92.1328
87.4648
83.1502
79.1529
75.4434
72.0013
68.8473
66.2805
345.671
336.409
326.157
314.481
300.985
285.567
268.7
251.145
233.684
216.896
201.129
186.54
173.167
160.981
149.915
139.892
130.831
122.641
115.219
108.44
102.247
96.5787
91.3767
86.5924
82.183
78.1097
74.3401
70.8503
67.6518
65.0214
345.44
335.556
324.575
312.247
298.409
283.103
266.692
249.735
232.832
216.466
200.958
186.488
173.125
160.867
149.678
139.498
130.256
121.876
114.27
107.344
101.027
95.2543
89.9674
85.1158
80.6543
76.5424
72.7458
69.2375
66.0183
63.3289
345.228
334.661
322.801
309.594
295.1
279.498
263.126
246.427
229.864
213.824
198.583
184.308
171.074
158.886
147.722
137.536
128.264
119.836
112.177
105.206
98.8536
93.0556
87.7533
82.8954
78.436
74.3337
70.5529
67.0643
63.8578
61.1176
345.026
333.625
320.591
306.149
290.628
274.359
257.69
240.985
224.593
208.809
193.845
179.834
166.833
154.845
143.849
133.802
124.643
116.307
108.725
101.824
95.5386
89.8062
84.5696
79.7779
75.3855
71.3509
67.6384
64.2168
61.0677
58.2883
344.828
332.27
317.515
301.28
284.265
266.968
249.739
232.853
216.548
201.011
186.377
172.729
160.087
148.442
137.768
128.015
119.122
111.026
103.66
96.9566
90.8536
85.2915
80.215
75.5748
71.3264
67.429
63.8479
60.5501
57.5181
54.7163
344.622
330.219
312.709
293.8
274.707
256.05
238.108
221.007
204.834
189.65
175.492
162.374
150.277
139.171
129.011
119.74
111.294
103.609
96.6195
90.2628
84.4789
79.2117
74.4087
70.023
66.0122
62.3367
58.9652
55.8593
53.0258
50.2277
344.383
326.511
304.189
281.247
259.439
239.256
220.693
203.596
187.836
173.306
159.936
147.657
136.41
126.132
116.759
108.226
100.466
93.4148
87.0091
81.1889
75.8983
71.0851
66.7008
62.7016
59.0491
55.7042
52.6443
49.813
47.2921
44.5454
343.949
318.031
286.657
257.933
233.157
211.899
193.401
177.061
162.447
149.254
137.295
126.429
116.552
107.575
99.421
92.0198
85.3053
79.2158
73.6931
68.6828
64.1345
60.0023
56.2429
52.8179
49.6948
46.8336
44.2343
41.7854
39.7426
37.1488
341.901
291.486
243.626
208.914
183.12
163.214
147.039
133.437
121.672
111.289
102.022
93.6923
86.1828
79.3873
73.2379
67.6745
62.6422
58.0903
53.972
50.244
46.8659
43.8028
41.02
38.488
36.1865
34.0647
32.1857
30.296
28.98
26.7889
317.059
174.817
117.98
90.8336
75.1812
64.9584
57.4934
51.6183
46.7494
42.5682
38.901
35.6427
32.7271
30.1139
27.7593
25.6333
23.7121
21.9754
20.4048
18.9831
17.6968
16.5274
15.4729
14.4987
13.6431
12.8009
12.1447
11.3432
10.9489
9.99149
346.556
339.356
331.238
320.675
306.076
290.11
265.081
239.024
218.885
201.099
185.6
172.075
160.191
149.676
140.334
132.036
124.689
118.154
112.179
106.508
101.231
96.3243
91.7569
87.4995
83.5246
79.8075
76.3276
73.0742
70.0817
67.6643
346.475
339.087
330.785
320.161
305.837
290.67
266.812
241.433
221.427
203.558
187.862
174.092
161.952
151.19
141.617
133.105
125.558
118.834
112.694
106.891
101.512
96.5218
91.8867
87.5736
83.5531
79.7985
76.288
73.0094
69.9959
67.5609
346.326
338.597
329.948
319.262
305.165
286.973
266.203
245.132
225.403
207.52
191.587
177.465
164.929
153.768
143.81
134.932
127.033
119.977
113.55
107.521
101.962
96.8259
92.0701
87.6573
83.5546
79.7323
76.1663
72.8422
69.7902
67.322
346.134
337.969
328.878
317.996
304.304
287.335
268.179
248.406
229.356
211.695
195.658
181.237
168.31
156.723
146.336
137.034
128.716
121.262
114.491
108.194
102.419
97.1032
92.1971
87.6593
83.4528
79.5449
75.9086
72.5267
69.4253
66.9116
345.924
337.279
327.697
316.533
303.094
287.052
269.218
250.642
232.38
215.101
199.124
184.541
171.324
159.382
148.612
138.914
130.196
122.351
115.244
108.683
102.691
97.1913
92.1304
87.4628
83.1483
79.1513
75.4419
72
68.8461
66.2794
345.713
336.571
326.468
314.935
301.528
286.105
269.179
251.54
233.998
217.149
201.345
186.74
173.367
161.19
150.14
140.138
131.101
122.938
115.539
108.769
102.585
96.9216
91.7227
86.9397
82.5297
78.4544
74.6816
71.1881
67.9876
65.3648
345.51
335.859
325.189
313.181
299.593
284.416
268.027
251.022
234.04
217.59
202.01
187.484
174.08
161.795
150.589
140.399
131.155
122.776
115.171
108.239
101.912
96.1274
90.8267
85.9596
81.4813
77.3517
73.5366
70.01
66.7773
64.0995
345.318
335.124
323.795
311.157
297.149
281.878
265.676
249.018
232.413
216.288
200.944
186.563
173.229
160.951
149.707
139.449
130.114
121.631
113.921
106.899
100.497
94.6493
89.298
84.3918
79.8851
75.7364
71.9104
68.3787
65.1371
62.4089
345.135
334.317
322.157
308.654
293.943
278.256
261.928
245.362
228.966
213.086
197.973
183.788
170.608
158.443
147.278
137.071
127.765
119.293
111.584
104.565
98.1675
92.3285
86.9903
82.1019
77.6174
73.4951
69.699
66.1989
62.981
60.2103
344.955
333.349
320.05
305.322
289.554
273.125
256.398
239.717
223.402
207.714
192.844
178.914
165.978
154.036
143.07
133.039
123.886
115.546
107.954
101.04
94.7395
88.9929
83.7435
78.9409
74.54
70.4994
66.7832
63.3599
60.2093
57.4075
344.775
332.048
317.054
300.542
283.263
265.76
248.408
231.478
215.187
199.701
185.134
171.555
158.98
147.395
136.771
127.058
118.197
110.124
102.774
96.0831
89.9884
84.4324
79.3608
74.725
70.481
66.5885
63.0129
59.7211
56.6958
53.8792
344.583
330.042
312.318
293.141
273.776
254.887
236.783
219.595
203.397
188.233
174.122
161.065
149.035
137.996
127.898
118.683
110.285
102.641
95.6868
89.3592
83.5994
78.3525
73.567
69.1964
65.1994
61.5365
58.1769
55.0821
52.2617
49.456
344.357
326.376
303.863
280.667
258.589
238.165
219.422
202.217
186.41
171.883
158.548
146.325
135.145
124.937
115.632
107.164
99.462
92.4623
86.1018
80.3207
75.0635
70.2791
65.9196
61.942
58.3085
54.9804
51.9361
49.1179
46.6138
43.8661
343.934
317.937
286.396
257.441
232.413
210.927
192.254
175.804
161.137
147.941
136.013
125.2
115.387
106.479
98.3947
91.0594
84.4056
78.3706
72.8961
67.9277
63.4156
59.3144
55.5817
52.1796
49.0766
46.2324
43.6493
41.2122
39.1863
36.597
341.895
291.432
243.437
208.542
182.546
162.456
146.14
132.449
120.643
110.26
101.021
92.7377
85.2846
78.5511
72.4634
66.9582
61.979
57.4745
53.3975
49.7051
46.3574
43.3201
40.5591
38.0454
35.7598
33.6505
31.7846
29.9027
28.5963
26.4173
317.058
174.798
117.902
90.6847
74.9538
64.6613
57.1416
51.2323
46.3483
42.1686
38.5148
35.2773
32.3858
29.7973
27.4677
25.3656
23.4664
21.7494
20.1962
18.7893
17.5157
16.357
15.3117
14.3446
13.4959
12.6584
12.0053
11.2188
10.7697
9.91122
346.124
337.883
328.645
317.526
303.627
286.344
266.959
246.747
227.583
209.93
193.942
179.586
166.73
155.218
144.904
135.666
127.403
120.001
113.305
107.148
101.479
96.2517
91.4213
86.9493
82.8009
78.9444
75.354
72.0124
68.9428
66.4401
346.067
337.701
328.343
317.173
303.371
286.427
267.483
247.675
228.729
211.153
195.149
180.72
167.763
156.135
145.701
136.345
127.966
120.452
113.653
107.407
101.665
96.3765
91.4952
86.9808
82.797
78.9112
75.2965
71.9348
68.8481
66.3305
345.963
337.366
327.783
316.517
302.835
286.439
268.121
249.088
230.551
213.151
197.156
182.63
169.514
157.697
147.061
137.5
128.917
121.205
114.224
107.823
101.95
96.5522
91.5796
86.9889
82.7414
78.8027
75.1441
71.7462
68.6284
66.0822
345.826
336.921
327.033
315.6
302.054
286.207
268.658
250.396
232.386
215.261
199.346
184.756
171.486
159.466
148.602
138.802
129.976
122.024
114.821
108.23
102.197
96.6653
91.5793
86.893
82.5657
78.5605
74.847
71.4034
68.2461
65.661
345.671
336.409
326.158
314.482
300.986
285.567
268.697
251.14
233.677
216.888
201.119
186.53
173.157
160.971
149.905
139.883
130.822
122.634
115.212
108.434
102.242
96.5738
91.3722
86.5884
82.1793
78.1064
74.3371
70.8476
67.6493
65.0191
345.51
335.859
325.189
313.181
299.594
284.416
268.026
251.02
234.037
217.587
202.006
187.48
174.076
161.791
150.585
140.395
131.151
122.772
115.168
108.236
101.909
96.125
90.8246
85.9577
81.4795
77.3501
73.5351
70.0086
66.7761
64.0983
345.349
335.276
324.117
311.66
297.808
282.641
266.489
249.841
233.22
217.065
201.686
187.272
173.907
161.602
150.335
140.056
130.704
122.205
114.481
107.446
101.028
95.166
89.7999
84.879
80.3576
76.1945
72.3544
68.8091
65.557
62.8333
345.191
334.643
322.882
309.814
295.485
280.077
263.914
247.417
231.021
215.096
199.915
185.65
172.388
160.144
148.902
138.624
129.252
120.72
112.955
105.883
99.4343
93.5465
88.1617
83.2286
78.7013
74.538
70.7027
67.1656
63.9168
61.152
345.034
333.917
321.368
307.448
292.378
276.458
260.04
243.5
227.2
211.444
196.454
182.376
169.281
157.181
146.058
135.878
126.584
118.113
110.398
103.37
96.9624
91.1148
85.7701
80.8779
76.3923
72.2718
68.4801
64.9864
61.7728
58.9749
344.876
333.014
319.359
304.223
288.072
271.35
254.447
237.7
221.4
205.777
190.996
177.16
164.313
152.451
141.554
131.581
122.474
114.171
106.607
99.7157
93.4346
87.7047
82.4708
77.6832
73.2974
69.2721
65.5719
62.1648
59.029
56.2093
344.712
331.766
316.446
299.536
281.859
264.024
246.439
229.382
213.052
197.588
183.084
169.587
157.101
145.606
135.067
125.432
116.641
108.629
101.333
94.6873
88.633
83.1128
78.0734
73.4672
69.2508
65.3843
61.8336
58.5654
55.5639
52.7388
344.536
329.811
311.785
292.222
272.455
253.213
234.845
217.492
201.221
186.052
171.984
158.999
147.058
136.115
126.112
116.987
108.674
101.107
94.2221
87.9561
82.2512
77.0533
72.3116
67.9807
64.0198
60.3901
57.0615
53.9948
51.2048
48.3995
344.323
326.194
303.407
279.844
257.373
236.595
217.578
200.193
184.295
169.748
156.444
144.288
133.194
123.083
113.879
105.507
97.8975
90.9829
84.6998
78.9884
73.7937
69.065
64.7553
60.8222
57.229
53.9373
50.9267
48.1373
45.6672
42.9281
343.915
317.808
286.027
256.741
231.353
209.539
190.606
173.984
159.224
146.004
134.102
123.35
113.62
104.805
96.8175
89.5776
83.0145
77.0637
71.6659
66.7667
62.3164
58.2703
54.5866
51.228
48.164
45.3542
42.8036
40.392
38.3989
35.8244
341.888
291.357
243.176
208.025
181.746
161.398
144.876
131.048
119.168
108.766
99.5499
91.3184
83.9333
77.279
71.2734
65.8486
60.9453
56.5106
52.4968
48.8609
45.5633
42.5701
39.8481
37.3682
35.1134
33.0295
31.1898
29.3251
28.0431
25.8809
317.058
174.776
117.805
90.4939
74.6565
64.2663
56.6669
50.7034
45.7898
41.6027
37.958
34.7413
31.8777
29.319
27.021
24.9505
23.0815
21.3924
19.8645
18.4803
17.2269
16.0856
15.0561
14.102
13.2658
12.4378
11.7947
11.0162
10.5721
9.72474
345.763
336.618
326.387
314.563
300.689
284.601
266.917
248.526
230.472
213.356
197.476
182.931
169.709
157.739
146.926
137.174
128.39
120.476
113.322
106.806
100.849
95.3878
90.3687
85.7452
81.4764
77.5261
73.8638
70.4672
67.3466
64.7645
345.724
336.494
326.18
314.313
300.472
284.53
267.054
248.881
230.986
213.96
198.114
183.561
170.303
158.281
147.407
137.589
128.738
120.757
113.538
106.964
100.956
95.452
90.3958
85.7407
81.4453
77.4727
73.7917
70.3795
67.2454
64.6507
345.652
336.26
325.788
313.829
300.029
284.319
267.181
249.392
231.786
214.932
199.158
184.604
171.295
159.188
148.21
138.279
129.31
121.21
113.877
107.2
101.102
95.5195
90.3967
85.685
81.3418
77.3289
73.6144
70.174
67.0156
64.3968
345.554
335.939
325.244
313.136
299.352
283.879
267.13
249.773
232.517
215.894
200.235
185.707
172.355
160.16
149.068
139.006
129.896
121.653
114.182
107.379
101.171
95.4929
90.2881
85.5064
81.1039
77.0414
73.2854
69.8106
66.6218
63.9703
345.44
335.556
324.576
312.248
298.409
283.102
266.688
249.73
232.825
216.457
200.947
186.477
173.113
160.855
149.666
139.487
130.246
121.866
114.261
107.336
101.019
95.2473
89.9611
85.11
80.649
76.5376
72.7414
69.2334
66.0146
63.3255
345.318
335.124
323.795
311.157
297.15
281.878
265.674
249.015
232.409
216.283
200.938
186.557
173.222
160.944
149.7
139.443
130.108
121.625
113.915
106.894
100.492
94.6448
89.2939
84.3881
79.8816
75.7332
71.9075
68.376
65.1347
62.4066
345.191
334.643
322.882
309.814
295.485
280.076
263.913
247.416
231.019
215.094
199.913
185.648
172.385
160.141
148.899
138.621
129.249
120.717
112.953
105.881
99.432
93.5444
88.1598
83.2268
78.6996
74.5365
70.7013
67.1643
63.9157
61.1509
345.061
334.096
321.78
308.113
293.268
277.515
261.2
244.709
228.416
212.64
197.613
183.488
170.344
158.193
147.021
136.794
127.455
118.943
111.19
104.126
97.6846
91.8049
86.43
81.5092
76.9966
72.8505
69.0346
65.5183
62.2852
59.4892
344.927
333.441
320.373
305.866
290.251
273.916
257.246
240.607
224.319
208.644
193.77
179.818
166.847
154.859
143.836
133.742
124.52
116.11
108.446
101.462
95.0934
89.2818
83.9714
79.1123
74.6594
70.5713
66.8119
63.35
60.1637
57.345
344.787
332.597
318.455
302.741
286.025
268.838
251.615
234.695
218.341
202.748
188.051
174.327
161.604
149.866
139.089
129.227
120.221
112.008
104.524
97.7041
91.4875
85.8163
80.6364
75.8993
71.5609
67.5807
63.9235
60.5574
57.4596
54.6299
344.639
331.404
315.623
298.144
279.889
261.558
243.609
226.329
209.899
194.43
179.986
166.589
154.225
142.862
132.456
122.95
114.279
106.378
99.1825
92.6291
86.658
81.2136
76.2435
71.7009
67.5433
63.7315
60.2321
57.0114
54.0572
51.2332
344.477
329.501
311.043
290.923
270.576
250.824
232.068
214.464
198.066
182.87
168.846
155.952
144.131
133.324
123.462
114.476
106.296
98.8531
92.0824
85.9213
80.312
75.201
70.5385
66.2798
62.3851
58.8161
55.5439
52.5281
49.792
46.9989
344.28
325.941
302.755
278.659
255.625
234.344
214.939
197.296
181.26
166.675
153.405
141.334
130.359
120.383
111.321
103.091
95.6186
88.8332
82.67
77.0686
71.9743
67.3369
63.11
59.2521
55.7273
52.4977
49.5449
46.8055
44.392
41.6752
343.888
317.624
285.49
255.722
229.821
207.547
188.255
171.391