/*--------------------------------*- C++ -*----------------------------------*\
  =========                 |
  \\      /  F ield         | OpenFOAM: The Open Source CFD Toolbox
   \\    /   O peration     | Website:  https://openfoam.org
    \\  /    A nd           | Version:  7
     \\/     M anipulation  |
\*---------------------------------------------------------------------------*/
FoamFile
{
    version     2.0;
    format      ascii;
    class       volScalarField;
    location    "200";
    object      nut;
}
// * * * * * * * * * * * * * * * * * * * * * * * * * * * * * * * * * * * * * //

dimensions      [0 2 -1 0 0 0 0];

internalField   nonuniform List<scalar> 
27370
(
624.392
316.324
132.684
37.8251
5.9055
10.5785
16.915
25.3597
35.0323
45.0878
55.1532
65.5244
76.75
87.5039
94.2573
97.3997
99.736
101.458
102.66
103.422
103.815
103.903
103.756
103.509
103.849
625.826
382.152
159.487
54.205
4.58458
11.5985
20.5845
30.3369
40.2798
50.0445
59.5779
69.3395
79.9221
90.2367
96.6772
99.2732
101.208
102.601
103.529
104.064
104.267
104.197
103.917
103.558
103.809
627.491
513.304
231.371
87.1513
0.167537
8.60786
20.5555
32.2861
43.0724
52.8222
61.6423
69.8367
78.0418
86.8545
95.4795
100.753
102.496
103.729
104.534
104.972
105.095
104.953
104.594
104.072
103.508
103.591
630.061
542.446
348.675
165.077
54.3485
0.145855
15.388
29.3116
41.8924
53.0121
62.5639
70.6526
77.5371
83.6241
89.5306
95.7617
101.902
105.631
106.371
106.74
106.805
106.612
106.202
105.61
104.872
104.03
103.194
103.052
633.195
556.236
450.192
321.623
172.228
70.6957
39.5245
52.7785
62.0931
70.8774
78.5948
85.1265
90.4742
94.7469
98.1458
100.963
103.587
106.285
108.316
110.453
110.149
109.594
108.855
107.973
106.975
105.885
104.726
103.529
102.385
101.985
635.824
568.046
480.809
375.301
272.838
182.517
135.474
134.868
128.789
125.739
123.965
122.732
121.662
120.589
119.474
118.363
117.37
116.555
115.721
114.508
113.118
111.635
110.101
108.539
106.964
105.386
103.814
102.266
100.815
100.151
637.125
574.69
499.622
415.618
333.361
266.537
220.507
190.272
172.984
161.198
152.688
146.11
140.677
136.006
131.888
128.216
124.956
122.078
119.48
116.977
114.556
112.222
109.972
107.807
105.723
103.715
101.781
99.9294
98.2023
97.2928
636.425
574.083
504.46
432.518
364.064
305.585
260.365
227.016
203.495
186.185
172.859
162.03
153.24
145.79
139.36
133.739
128.793
124.435
120.555
117.024
113.772
110.754
107.939
105.304
102.828
100.495
98.2907
96.2138
94.2731
93.1566
632.91
564.135
493.768
427.345
367.628
316.562
275.032
242.281
216.986
197.22
181.499
168.605
157.7
148.61
140.799
134.005
128.047
122.792
118.128
113.946
110.161
106.71
103.542
100.621
97.9128
95.3932
93.0382
90.8441
88.7753
87.508
625.108
541.627
465.372
400.898
347.275
302.906
266.537
236.994
213.148
193.791
177.93
164.802
153.427
143.819
135.608
128.447
122.157
116.602
111.67
107.263
103.297
99.7058
96.4347
93.4399
90.6839
88.1385
85.7723
83.5881
81.4943
80.1451
609.941
501.331
416.334
353.394
305.87
268.677
238.697
214.139
193.86
176.96
162.824
150.87
140.395
131.46
123.734
116.96
110.983
105.686
100.968
96.7472
92.9506
89.5188
86.4
83.5536
80.9413
78.5395
76.3074
74.27
72.2664
70.9123
580.256
435.324
344.257
286.663
247.478
218.696
196.098
177.644
162.227
149.074
137.91
128.087
119.588
112.169
105.646
99.8765
94.751
90.18
86.0889
82.4141
79.1
76.1
73.3708
70.8816
68.5944
66.5002
64.5407
62.7854
60.9936
59.7162
518.326
334.871
250.655
205.972
178.386
159.256
144.455
132.407
122.265
113.294
105.528
98.6609
92.5595
87.1278
82.2786
77.9379
74.0431
70.5406
67.3839
64.5319
61.9472
59.5998
57.4557
55.5001
53.6916
52.0488
50.4813
49.1246
47.6685
46.553
383.648
202.087
147.131
122.119
107.538
97.8412
90.0707
83.7876
78.3403
73.4335
69.0155
65.0173
61.3875
58.0839
55.0794
52.3494
49.8698
47.6176
45.57
43.707
42.0067
40.4561
39.0286
37.7292
36.508
35.4202
34.3383
33.45
32.4549
31.5912
151.873
75.0633
58.1092
50.4824
45.8325
42.7275
40.1589
37.9269
35.9112
34.0458
32.312
30.7023
29.2048
27.7957
26.4867
25.2791
24.169
23.1506
22.2163
21.3599
20.5713
19.8493
19.1757
18.5664
17.9772
17.4674
16.9376
16.4984
16.0697
15.5444
12.4958
9.27986
7.62791
6.69954
6.10286
5.68025
5.3503
5.07413
4.83166
4.61174
4.40862
4.21917
4.04193
3.876
3.72012
3.57362
3.43606
3.30702
3.1861
3.07281
2.96682
2.86734
2.77475
2.68664
2.60681
2.52625
2.46083
2.38233
2.32893
2.24659
625.828
382.066
159.388
54.3084
4.32028
11.3883
20.4604
30.2669
40.2391
50.0206
59.5623
69.329
79.9147
90.2308
96.6716
99.2689
101.205
102.598
103.527
104.062
104.266
104.196
103.916
103.557
103.808
626.908
444.947
188.563
64.5602
5.03221
14.4056
24.8554
35.2737
45.2697
54.7145
63.7481
72.9458
82.9268
92.7981
98.9429
101.043
102.593
103.672
104.341
104.66
104.683
104.462
104.055
103.59
103.754
628.536
536.662
261.72
104.021
1.24933
0.915024
12.9243
25.5085
37.3081
47.9436
57.3831
65.7829
73.5008
81.2097
89.5019
97.7364
102.769
104.078
104.967
105.491
105.693
105.62
105.314
104.817
104.178
103.516
103.518
631.06
546.761
400.444
189.789
78.9276
1.32188
1.82001
21.748
35.4498
47.5417
58.1027
67.1075
74.6778
81.0723
86.6983
92.1681
97.9643
103.811
107.342
107.718
107.793
107.616
107.219
106.637
105.901
105.041
104.096
103.172
102.957
633.991
559.654
458.925
335.828
193.45
100.363
53.246
64.6558
71.1188
78.3347
84.8864
90.4695
95.0272
98.6335
101.463
103.783
105.961
108.236
109.867
111.851
111.249
110.45
109.508
108.454
107.312
106.099
104.836
103.551
102.331
101.868
636.38
570.375
486.292
385.93
287.808
196.858
148.524
147.044
138.153
133.326
130.193
127.912
125.996
124.228
122.532
120.928
119.503
118.298
117.114
115.606
113.978
112.298
110.598
108.897
107.204
105.526
103.868
102.247
100.732
100.015
637.473
576.123
502.838
421.519
341.912
276.445
230.057
198.708
179.846
166.97
157.339
149.982
143.907
138.707
134.148
130.105
126.523
123.362
120.513
117.794
115.193
112.706
110.328
108.054
105.876
103.789
101.787
99.8763
98.0977
97.1436
636.621
574.874
506.184
435.583
368.545
310.95
265.854
232.169
207.966
189.98
176.092
164.708
155.487
147.674
140.94
135.059
129.892
125.337
121.282
117.599
114.215
111.085
108.174
105.456
102.91
100.516
98.259
96.1367
94.1555
93.0029
633.003
564.508
494.576
428.782
369.746
319.2
277.885
245.106
219.581
199.513
183.479
170.331
159.152
149.836
141.834
134.874
128.77
123.385
118.606
114.322
110.447
106.917
103.682
100.701
97.9416
95.3772
92.983
90.7549
88.6551
87.3592
625.139
541.751
465.649
401.42
348.112
304.024
267.834
238.356
214.47
195.015
179.027
165.772
154.286
144.548
136.231
128.974
122.598
116.965
111.962
107.49
103.466
99.8235
96.5064
93.4708
90.6788
88.1016
85.7072
83.4983
81.3817
80.0102
609.941
501.329
416.353
353.477
306.066
269.003
239.139
214.66
194.414
177.511
163.345
151.353
140.836
131.847
124.073
117.25
111.229
105.889
101.131
96.8725
93.041
89.577
86.4288
83.5558
80.9193
78.4959
76.2443
74.1896
72.1698
70.7987
580.244
435.278
344.184
286.584
247.424
218.691
196.152
177.755
162.379
149.254
138.101
128.279
119.778
112.345
105.805
100.018
94.8727
90.2818
86.1708
82.4761
79.1426
76.1241
73.3773
70.8716
68.5691
66.4608
64.4883
62.7213
60.9185
59.6288
518.314
334.826
250.578
205.873
178.279
159.16
144.381
132.369
122.248
113.305
105.565
98.7099
92.617
87.1886
82.339
77.9951
74.095
70.5855
67.4206
64.5596
61.9653
59.6082
57.4543
55.4892
53.6716
52.0202
50.4444
49.0803
47.6171
46.4934
383.642
202.063
147.085
122.056
107.461
97.7625
89.9947
83.7255
78.2924
73.4011
68.9986
65.0119
61.3916
58.095
55.095
52.3673
49.8883
47.635
45.5851
43.7189
42.0147
40.4597
39.0274
37.7231
36.4971
35.4046
34.318
33.4256
32.4263
31.5576
151.872
75.0569
58.0946
50.4603
45.8027
42.694
40.1246
37.8953
35.8841
34.024
32.2959
30.6909
29.1988
27.7944
26.4889
25.2837
24.1751
23.1573
22.223
21.3659
20.5762
19.8527
19.1774
18.5663
17.975
17.4634
16.9316
16.4905
16.0606
15.5323
12.4958
9.27972
7.62728
6.6983
6.10094
5.67777
5.34744
5.07112
4.8287
4.60898
4.40616
4.21707
4.04014
3.87452
3.71893
3.57268
3.43532
3.30644
3.18563
3.0724
2.96645
2.86696
2.77434
2.68616
2.60626
2.52559
2.46009
2.38143
2.32798
2.24543
627.496
513.013
231.047
86.9153
0.18569
8.52968
20.3772
32.1139
42.9414
52.7302
61.5787
69.7921
78.0097
86.8309
95.4614
100.738
102.485
103.72
104.527
104.966
105.09
104.949
104.59
104.069
103.505
103.588
628.535
536.658
261.451
103.721
1.10358
0.82266
12.8721
25.4113
37.21
47.8648
57.3255
65.7418
73.4715
81.1884
89.4862
97.7245
102.76
104.071
104.961
105.486
105.689
105.617
105.312
104.814
104.176
103.514
103.517
630.475
545.386
343.243
156.044
45.5362
12.5506
26.5424
39.1657
50.3853
60.1324
68.4889
75.6853
82.1327
88.4949
95.2987
102.117
106.179
106.784
107.081
107.104
106.884
106.455
105.848
105.097
104.245
103.401
103.252
632.828
554.451
444.091
268.474
141.402
40.4801
18.8498
26.6859
39.8851
51.7033
62.0237
70.9035
78.3578
84.5114
89.6043
94.0144
98.2946
102.85
107.556
110.26
110.027
109.589
108.975
108.209
107.314
106.313
105.229
104.094
103.007
102.657
635.368
565.498
472.772
356.272
233.99
143.164
101.274
90.9873
91.6743
95.1456
98.9087
102.277
105.014
107.097
108.63
109.82
110.965
112.25
112.999
114.256
113.136
111.902
110.591
109.224
107.816
106.378
104.924
103.476
102.115
101.534
637.33
574.346
495.428
403.259
312.839
239.532
194.11
169.476
156.066
147.269
141.709
137.472
133.966
130.889
128.101
125.567
123.325
121.38
119.544
117.505
115.446
113.409
111.407
109.451
107.54
105.676
103.86
102.105
100.471
99.6531
638.059
578.544
508.259
431.406
356.294
292.32
245.477
213.591
192.364
177.382
165.868
157.065
149.796
143.615
138.239
133.504
129.321
125.63
122.316
119.201
116.268
113.502
110.887
108.41
106.061
103.827
101.699
99.6799
97.8055
96.7674
636.938
576.174
509.054
440.727
376.111
319.946
275.165
241.194
215.946
196.798
181.841
169.593
159.533
151.057
143.765
137.409
131.831
126.911
122.533
118.568
114.943
111.606
108.519
105.65
102.973
100.467
98.1128
95.9066
93.8501
92.6292
633.14
565.075
495.855
431.124
373.271
323.635
282.749
250.001
224.13
203.557
186.971
173.388
161.737
151.991
143.649
136.388
130.018
124.397
119.406
114.935
110.896
107.222
103.862
100.772
97.9178
95.2708
92.8046
90.5137
88.3567
87.0064
625.17
541.89
466.015
402.186
349.416
305.831
269.978
240.647
216.722
197.113
180.913
167.44
155.765
145.797
137.292
129.864
123.333
117.559
112.428
107.839
103.71
99.973
96.5721
93.4621
90.6041
87.9686
85.5227
83.2684
81.1098
79.6957
609.921
501.265
416.289
353.505
306.277
269.444
239.791
215.467
195.295
178.402
164.192
152.143
141.556
132.479
124.62
117.715
111.615
106.199
101.371
97.0446
93.1506
89.6288
86.4276
83.5064
80.8262
78.3634
76.0762
73.9899
71.9405
70.5368
580.21
435.155
343.991
286.365
247.237
218.586
196.15
177.861
162.563
149.498
138.366
128.557
120.057
112.604
106.038
100.221
95.0439
90.4194
86.2739
82.5447
79.1773
76.126
73.3479
70.8127
68.4826
66.349
64.3529
62.5647
60.7422
59.4281
518.287
334.727
250.41
205.653
178.036
158.93
144.189
132.238
122.159
113.269
105.579
98.7481
92.6742
87.2551
82.4077
78.0606
74.1529
70.6328
67.4545
64.5785
61.968
59.594
57.4231
55.4413
53.6074
51.9406
50.35
48.9724
47.4971
46.3562
383.631
202.014
146.993
121.925
107.301
97.5952
89.8287
83.5823
78.1742
73.3114
68.9378
64.9732
61.3716
58.0891
55.0987
52.3767
49.8998
47.6459
45.5929
43.7217
42.011
40.4486
39.0082
37.6956
36.4609
35.3601
34.2652
33.3648
32.3595
31.4801
151.871
75.0449
58.0668
50.4176
45.7441
42.6268
40.0543
37.8286
35.8247
33.9738
32.2559
30.6595
29.1772
27.7813
26.4826
25.2823
24.1768
23.1606
22.2264
21.3685
20.5771
19.8512
19.173
18.5588
17.9641
17.4492
16.9141
16.4692
16.0374
15.5044
12.4958
9.27947
7.62616
6.69601
6.09731
5.673
5.34181
5.06507
4.82261
4.60314
4.4008
4.21228
4.03592
3.87085
3.71577
3.56999
3.43302
3.30444
3.18385
3.07078
2.9649
2.86542
2.77276
2.68448
2.60447
2.52361
2.45799
2.37907
2.32544
2.24267
630.054
542.418
347.844
164.411
53.5761
0.13225
15.2417
29.1322
41.6977
52.8276
62.4086
70.5313
77.4457
83.5557
89.4786
95.7217
101.871
105.607
106.352
106.724
106.792
106.601
106.193
105.603
104.865
104.024
103.189
103.047
631.053
546.735
399.756
189.097
78.4213
1.56073
1.75254
21.5434
35.279
47.3831
57.9578
66.9856
74.5816
80.9989
86.6427
92.1255
97.9312
103.785
107.323
107.703
107.781
107.605
107.21
106.63
105.895
105.035
104.091
103.168
102.953
632.824
554.432
444.042
268
141.066
40.2976
18.8802
26.5828
39.7555
51.6042
61.9408
70.8319
78.2979
84.4634
89.5668
93.9854
98.272
102.832
107.542
110.249
110.019
109.582
108.969
108.204
107.31
106.309
105.225
104.091
103.004
102.655
634.933
563.451
467.002
344.149
213.769
122.412
70.7731
65.2449
70.8029
77.7968
84.3955
90.1289
94.8686
98.6595
101.667
104.181
106.626
109.296
112.26
113.746
112.773
111.689
110.516
109.27
107.967
106.618
105.239
103.854
102.55
102.018
636.98
572.357
489.263
389.569
291.452
197.599
149.566
129.077
121.663
119.467
118.977
118.979
118.984
118.808
118.437
117.976
117.616
117.467
117.011
117.124
115.355
113.564
111.777
110.003
108.248
106.515
104.809
103.146
101.598
100.857
638.413
578.913
506.029
423.304
341.493
273.546
226.251
196.729
178.327
165.811
156.756
149.91
144.278
139.448
135.195
131.414
128.078
125.148
122.464
119.745
117.135
114.635
112.242
109.952
107.758
105.651
103.628
101.695
99.9054
98.951
638.693
581.215
514.376
442.679
372.841
312.247
265.497
231.858
207.962
190.424
176.912
166.075
157.281
149.821
143.372
137.723
132.752
128.365
124.441
120.814
117.452
114.324
111.402
108.664
106.091
103.665
101.372
99.2122
97.2113
96.0601
637.242
577.484
512.101
446.393
384.661
330.606
286.49
252.093
225.695
205.206
188.966
175.696
164.553
155.232
147.222
140.253
134.139
128.745
123.948
119.621
115.685
112.083
108.767
105.702
102.857
100.205
97.7254
95.4108
93.2554
91.9427
633.228
565.502
496.996
433.456
377.033
328.592
288.351
255.703
229.493
208.37
191.165
176.997
164.853
154.552
145.779
138.136
131.428
125.506
120.246
115.536
111.288
107.431
103.911
100.682
97.7062
94.9534
92.3949
90.0238
87.7922
86.3689
625.139
541.83
466.103
402.681
350.525
307.583
272.201
243.108
219.195
199.448
183.029
169.301
157.42
147.184
138.449
130.812
124.091
118.142
112.851
108.116
103.855
100.001
96.4942
93.2905
90.3493
87.6402
85.129
82.8177
80.605
79.134
609.842
501.009
415.941
353.204
306.166
269.609
240.235
216.131
196.087
179.243
165.01
152.906
142.257
133.09
125.135
118.135
111.943
106.439
101.525
97.1188
93.1487
89.5564
86.2901
83.3093
80.575
78.0633
75.7317
73.6063
71.5193
70.0721
580.131
434.892
343.58
285.876
246.755
218.19
195.885
177.738
162.554
149.584
138.494
128.718
120.236
112.772
106.185
100.34
95.1298
90.469
86.2853
82.5168
79.1101
76.0201
73.2046
70.6341
68.2706
66.106
64.0809
62.2669
60.4198
59.0733
518.235
334.549
250.114
205.265
177.596
158.49
143.787
131.913
121.888
113.073
105.453
98.6635
92.6233
87.2248
82.3881
78.0437
74.1325
70.6037
67.4128
64.5212
61.893
59.5001
57.3097
55.3084
53.455
51.77
50.1613
48.7673
47.2775
46.1138
383.611
201.936
146.848
121.718
107.043
97.3156
89.5426
83.3201
77.942
73.1169
68.7824
64.8495
61.2757
58.0151
55.041
52.3298
49.8591
47.6071
45.5527
43.6773
41.9603
40.39
38.9405
37.6184
36.3736
35.2632
34.1583
33.2482
32.2359
31.342
151.869
75.0275
58.0258
50.3536
45.6548
42.5221
39.9418
37.718
35.7215
33.8817
32.1769
30.5921
29.1228
27.7389
26.4499
25.2569
24.1565
23.1433
22.2104
21.3523
20.5593
19.8311
19.1498
18.5321
17.9335
17.4147
16.8757
16.4263
15.9928
15.4527
12.4958
9.27912
7.62455
6.69268
6.09197
5.66582
5.33318
5.05556
4.81277
4.59343
4.39155
4.2037
4.02802
3.86366
3.70927
3.56411
3.42769
3.29957
3.17933
3.06651
2.96079
2.86139
2.76874
2.68038
2.6003
2.51921
2.45354
2.37412
2.32086
2.23709
633.182
556.176
450.013
321.187
171.289
70.0545
38.6909
52.2589
61.7245
70.5862
78.3568
84.9289
90.312
94.6164
98.0427
100.881
103.523
106.234
108.275
110.421
110.122
109.571
108.837
107.957
106.961
105.874
104.716
103.52
102.377
101.978
633.98
559.605
458.787
335.494
192.859
88.4484
52.6954
63.861
70.757
78.0746
84.6812
90.3015
94.8897
98.5227
101.374
103.713
105.905
108.192
109.831
111.823
111.226
110.431
109.492
108.441
107.3
106.089
104.828
103.543
102.324
101.862
635.361
565.465
472.687
356.073
233.63
142.64
100.958
90.7395
91.4559
94.9714
98.7704
102.165
104.923
107.023
108.571
109.772
110.927
112.218
112.974
114.237
113.12
111.888
110.579
109.214
107.807
106.371
104.918
103.47
102.11
101.529
636.976
572.342
489.227
389.495
291.332
197.433
149.438
128.978
121.573
119.39
118.914
118.928
118.943
118.774
118.409
117.953
117.597
117.451
116.999
117.115
115.347
113.557
111.771
109.998
108.243
106.511
104.806
103.143
101.595
100.855
638.439
578.692
504.59
419.444
335.178
253.667
201.455
172.326
156.835
147.938
142.288
138.166
134.838
131.926
129.267
126.835
124.689
122.862
121.09
119.826
117.353
114.954
112.644
110.422
108.285
106.227
104.244
102.345
100.587
99.6637
639.31
582.848
515.489
441.364
368.311
305.395
257.817
224.695
201.837
185.518
173.016
163.23
155.236
148.449
142.561
137.389
132.835
128.818
125.207
121.757
118.55
115.547
112.728
110.073
107.568
105.196
102.947
100.82
98.8561
97.7464
639.13
583.227
519.405
452.458
387.805
330.841
284.913
249.967
223.772
203.832
188.216
175.482
164.97
156.129
148.515
141.877
136.047
130.903
126.319
122.142
118.319
114.8
111.546
108.525
105.709
103.076
100.606
98.2938
96.1535
94.8737
637.351
578.142
514.123
450.769
391.848
340.078
296.981
262.424
235.119
213.436
195.97
181.674
169.498
159.257
150.5
142.88
136.197
130.298
125.057
120.345
116.08
112.196
108.638
105.364
102.339
99.5333
96.9201
94.4903
92.2275
90.811
633.133
565.321
497.184
434.628
379.584
332.44
293.017
260.641
234.257
212.709
194.967
180.246
167.651
156.808
147.598
139.569
132.517
126.286
120.749
115.792
111.327
107.28
103.594
100.221
97.1188
94.2562
91.6018
89.1475
86.8365
85.3311
624.948
541.251
465.39
402.204
350.593
308.318
273.506
244.766
220.979
201.195
184.633
170.703
158.654
148.187
139.24
131.406
124.502
118.385
112.937
108.059
103.667
99.6945
96.0826
92.7847
89.7598
86.9766
84.3995
82.0308
79.7617
78.2271
609.638
500.358
414.992
352.171
305.256
268.968
239.909
216.086
196.239
179.513
165.318
153.206
142.535
133.316
125.29
118.216
111.947
106.366
101.377
96.8962
92.8556
89.1966
85.8684
82.8304
80.0437
77.4845
75.1095
72.9462
70.8213
69.3257
579.969
434.375
342.787
284.911
245.738
217.232
195.058
177.078
162.04
149.21
138.193
128.491
120.057
112.612
106.027
100.173
94.9461
90.2621
86.0504
82.2509
78.8113
75.6879
72.8393
70.2366
67.8422
65.6488
63.5961
61.758
59.887
58.5046
518.14
334.248
249.627
204.626
176.857
157.718
143.039
131.244
121.28
112.567
105.024
98.3014
92.3157
86.9572
82.148
77.8208
73.9181
70.3909
67.1959
64.2957
61.6554
59.2481
57.0417
55.0237
53.1532
51.4517
49.8263
48.4171
46.9142
45.7248
383.58
201.819
146.634
121.411
106.656
96.8838
89.0883
82.8816
77.5319
72.7505
68.4605
64.5687
61.0322
57.8032
54.8543
52.1622
49.7046
47.4607
45.41
43.5347
41.8148
40.2395
38.7832
37.4534
36.1998
35.0809
33.9669
33.0475
32.0303
31.1186
151.867
75.0044
57.9706
50.266
45.5306
42.3726
39.7768
37.5495
35.5576
33.7286
32.0376
30.4664
29.0123
27.6431
26.367
25.1843
24.0916
23.0837
22.154
21.2971
20.504
19.7746
19.0909
18.4706
17.8686
17.3464
16.8042
16.3489
15.919
15.3621
12.4958
9.2787
7.62251
6.68833
6.08484
5.65604
5.32113
5.04193
4.79826
4.57866
4.37701
4.18971
4.01469
3.85109
3.69748
3.55308
3.41736
3.28985
3.17012
3.05769
2.95228
2.85307
2.76055
2.67221
2.59216
2.51078
2.44585
2.36235
2.32729
2.21283
635.81
567.983
480.649
374.952
272.258
181.79
134.739
134.39
128.434
125.457
123.74
122.55
121.513
120.468
119.374
118.282
117.303
116.499
115.675
114.47
113.086
111.608
110.078
108.519
106.947
105.371
103.8
102.255
100.804
100.142
636.368
570.322
486.162
385.655
287.399
196.574
147.914
146.704
137.847
133.083
130
127.755
125.868
124.123
122.445
120.857
119.444
118.249
117.073
115.572
113.949
112.274
110.578
108.879
107.189
105.512
103.856
102.237
100.723
100.006
637.321
574.308
495.339
403.08
312.565
239.224
193.833
169.242
155.858
147.096
141.568
137.356
133.871
130.811
128.036
125.513
123.28
121.342
119.512
117.479
115.424
113.389
111.391
109.436
107.528
105.665
103.85
102.096
100.464
99.6461
638.407
578.891
505.98
423.211
341.352
273.381
226.097
196.596
178.209
165.709
156.672
149.84
144.22
139.399
135.154
131.38
128.049
125.124
122.443
119.727
117.12
114.622
112.231
109.943
107.749
105.643
103.621
101.689
99.9
98.9461
639.308
582.84
515.471
441.33
368.261
305.333
257.757
224.64
201.788
185.476
172.98
163.199
155.211
148.428
142.543
137.374
132.822
128.807
125.197
121.748
118.542
115.541
112.722
110.068
107.563
105.192
102.943
100.817
98.8534
97.744
639.668
584.848
521.376
453.853
388.096
330.12
283.616
248.571
222.538
202.883
187.56
175.079
164.841
156.209
148.769
142.278
136.576
131.542
127.05
122.928
119.149
115.665
112.439
109.438
106.638
104.015
101.552
99.2429
97.1103
95.8435
639.085
583.552
521.528
458.139
397.831
344.323
299.836
264.469
236.8
215.029
197.6
183.386
171.304
161.201
152.525
144.977
138.356
132.514
127.32
122.635
118.384
114.504
110.942
107.658
104.619
101.795
99.1614
96.7089
94.4365
93.0276
637.032
577.339
513.753
452.008
395.41
345.815
304.02
269.775
242.062
219.605
201.241
186.072
173.167
162.092
152.683
144.494
137.308
130.963
125.326
120.273
115.715
111.578
107.804
104.344
101.159
98.2147
95.4831
92.9519
90.5902
89.0704
632.669
563.909
495.424
433.337
379.387
333.492
295.045
263.194
236.931
215.234
197.192
182.094
169.201
157.957
148.397
140.06
132.73
126.246
120.478
115.316
110.668
106.462
102.635
99.1389
95.9302
92.9746
90.2393
87.7158
85.3344
83.7483
624.455
539.686
463.167
399.875
348.628
306.97
272.795
244.555
221.078
201.438
184.898
170.904
158.792
148.208
139.131
131.169
124.142
117.905
112.343
107.358
102.867
98.8039
95.1099
91.7384
88.6477
85.8062
83.1771
80.7642
78.448
76.8515
609.206
498.99
412.974
349.847
302.937
266.875
238.15
214.674
195.119
178.62
164.569
152.532
141.923
132.737
124.703
117.609
111.311
105.694
100.664
96.1404
92.0558
88.3535
84.9835
81.906
79.0824
76.4896
74.0831
71.8933
69.739
68.1967
579.659
433.415
341.346
283.158
243.842
215.348
193.295
175.501
160.649
148.016
137.12
127.555
119.216
111.843
105.306
99.4829
94.2735
89.5966
85.3837
81.5765
78.1246
74.9856
72.1195
69.4984
67.0852
64.8739
62.803
60.9496
59.0623
57.6453
517.973
333.741
248.833
203.597
175.661
156.443
141.761
130.038
120.139
111.549
104.105
97.4777
91.5742
86.2842
81.5293
77.2438
73.3717
69.8657
66.684
63.7906
61.1519
58.7423
56.5304
54.5052
52.6258
50.9153
49.2796
47.8612
46.3509
45.1376
383.53
201.645
146.321
120.963
106.086
96.2365
88.3947
82.1876
76.8598
72.1238
67.8837
64.0427
60.554
57.3688
54.4575
51.7962
49.3629
47.1372
45.0994
43.2324
41.5169
39.9432
38.4859
37.1537
35.8959
34.7726
33.6532
32.7274
31.7085
30.7837
151.863
74.9741
57.8976
50.1484
45.3614
42.1646
39.5419
37.3026
35.3096
33.4887
31.8106
30.2544
28.816
27.465
26.2053
25.0365
23.9549
22.9556
22.032
21.1794
20.3887
19.6603
18.9765
18.3554
17.7517
17.2275
16.6835
16.2252
15.7919
15.2391
12.4958
9.27819
7.62
6.68285
6.07563
5.64309
5.30482
5.02305
4.77763
4.55712
4.35522
4.16817
3.99371
3.83079
3.678
3.53448
3.3996
3.27288
3.15386
3.04204
2.93713
2.83832
2.74613
2.65798
2.57812
2.49688
2.43133
2.35158
2.29792
2.2143
637.112
574.638
499.5
415.381
332.986
266.106
220.08
189.899
172.686
160.948
152.489
145.946
140.541
135.893
131.793
128.137
124.889
122.022
119.432
116.936
114.521
112.191
109.946
107.784
105.703
103.697
101.766
99.9153
98.1896
97.2812
637.462
576.078
502.734
421.322
341.615
276.108
229.719
198.409
179.59
166.753
157.163
149.836
143.786
138.606
134.064
130.034
126.463
123.311
120.469
117.757
115.161
112.679
110.304
108.032
105.857
103.772
101.772
99.8632
98.0859
97.1328
638.051
578.51
508.184
431.267
356.087
292.078
245.238
213.375
192.174
177.22
165.73
156.95
149.7
143.535
138.171
133.446
129.272
125.589
122.28
119.17
116.241
113.478
110.866
108.393
106.045
103.813
101.686
99.6688
97.7955
96.7582
638.687
581.193
514.329
442.595
372.718
312.1
265.349
231.722
207.839
190.318
176.819
165.997
157.214
149.764
143.324
137.682
132.716
128.335
124.415
120.791
117.433
114.307
111.387
108.65
106.079
103.654
101.363
99.2036
97.2035
96.053
639.127
583.215
519.38
452.416
387.744
330.767
284.837
249.895
223.706
203.773
188.165
175.437
164.931
156.095
148.486
141.852
136.025
130.884
126.303
122.127
118.306
114.789
111.536
108.516
105.702
103.069
100.6
98.2881
96.1483
94.869
639.083
583.548
521.519
458.124
397.81
344.297
299.808
264.442
236.774
215.006
197.58
183.368
171.288
161.187
152.513
144.966
138.346
132.506
127.312
122.629
118.379
114.498
110.937
107.654
104.615
101.791
99.1583
96.7062
94.434
93.0253
638.2
581.009
518.899
457.448
400.35
349.935
307.354
272.511
244.392
221.676
203.143
187.86
174.874
163.749
154.289
146.063
138.847
132.477
126.817
121.74
117.157
112.994
109.194
105.709
102.499
99.5299
96.7743
94.2193
91.8424
90.319
635.971
574.055
509.436
448.231
393.304
345.679
305.439
272.051
244.577
221.959
203.218
187.575
174.296
162.709
152.859
144.298
136.776
130.127
124.215
118.923
114.157
109.842
105.914
102.324
99.0269
95.9886
93.1765
90.5785
88.1439
86.5345
631.564
560.4
490.448
428.112
374.866
330.135
292.83
261.84
236.103
214.66
196.684
181.527
168.573
157.188
147.454
138.974
131.501
124.879
118.982
113.699
108.944
104.642
100.731
97.1611
93.8888
90.8789
88.0967
85.5352
83.1073
81.453
623.431
536.435
458.443
394.576
343.477
302.404
268.963
241.416
218.493
199.258
182.987
169.152
157.146
146.633
137.57
129.605
122.561
116.298
110.702
105.68
101.152
97.0515
93.3229
89.9194
86.7998
83.9332
81.2812
78.8511
76.5091
74.8616
608.37
496.386
409.18
345.449
298.41
262.55
234.211
211.185
192.056
175.934
162.18
150.347
139.934
130.904
122.965
115.942
109.694
104.112
99.1032
94.5909
90.5104
86.8072
83.4329
80.3495
77.5186
74.9188
72.5044
70.3103
68.1449
66.5649
579.082
431.685
338.825
280.142
240.586
212.062
190.134
172.564
157.956
145.599
134.895
125.553
117.386
110.16
103.739
98.008
92.8709
88.2499
84.0793
80.3034
76.8737
73.7501
70.8941
68.2794
65.8694
63.6602
61.5886
59.7365
57.8475
56.4028
517.673
332.876
247.531
201.948
173.764
154.416
139.705
128.052
118.227
109.788
102.474
95.9818
90.2001
85.0183
80.3557
76.1472
72.3384
68.8835
65.7422
62.8802
60.2652
57.8733
55.674
53.6578
51.784
50.0778
48.4435
47.0266
45.5204
44.2869
383.444
201.372
145.848
120.296
105.245
95.2756
87.3583
81.1315
75.8177
71.1287
66.9457
63.168
59.7414
56.6159
53.7587
51.1445
48.751
46.5582
44.5469
42.7008
41.0013
39.4398
37.9909
36.6652
35.411
34.2906
33.1728
32.2455
31.2342
30.2945
151.858
74.9327
57.798
49.9869
45.1278
41.8744
39.2103
36.9475
34.9457
33.1288
31.4622
29.9223
28.5006
27.1713
25.9321
24.7817
23.7159
22.7297
21.8167
20.9724
20.1879
19.4644
18.7836
18.1651
17.5624
17.039
16.4962
16.0349
15.6075
15.0468
12.4958
9.27759
7.61687
6.67581
6.06357
5.62583
5.28274
4.99705
4.74876
4.52644
4.32363
4.13638
3.96225
3.79992
3.64797
3.50543
3.3716
3.2459
3.12785
3.01691
2.91281
2.81467
2.72311
2.63541
2.55606
2.47505
2.40991
2.33031
2.2766
2.19357
636.416
574.044
504.375
432.365
363.835
305.31
260.08
226.752
203.268
185.992
172.693
161.892
153.123
145.69
139.274
133.665
128.73
124.38
120.507
116.983
113.736
110.722
107.911
105.279
102.806
100.476
98.273
96.198
94.2587
93.1434
636.612
574.839
506.11
435.452
368.352
310.719
265.615
231.944
207.767
189.808
175.943
164.582
155.38
147.583
140.861
134.992
129.834
125.286
121.238
117.56
114.181
111.055
108.148
105.433
102.889
100.498
98.2425
96.1218
94.142
92.9905
636.931
576.147
508.997
440.628
375.968
319.774
274.985
241.023
215.791
196.662
181.722
169.489
159.445
150.982
143.7
137.352
131.782
126.868
122.495
118.535
114.914
111.581
108.496
105.63
102.955
100.451
98.0983
95.8935
93.8382
92.6182
637.237
577.465
512.062
446.328
384.567
330.492
286.37
251.976
225.587
205.109
188.88
175.62
164.487
155.175
147.172
140.21
134.101
128.712
123.918
119.595
115.662
112.062
108.749
105.686
102.842
100.192
97.7136
95.4001
93.2457
91.9337
637.348
578.13
514.1
450.731
391.794
340.012
296.91
262.354
235.052
213.375
195.915
181.625
169.454
159.219
150.466
142.851
136.17
130.275
125.036
120.327
116.064
112.181
108.625
105.352
102.329
99.5237
96.9114
94.4824
92.2203
90.8043
637.03
577.334
513.741
451.99
395.384
345.783
303.985
269.739
242.027
219.573
201.211
186.045
173.142
162.07
152.664
144.477
137.293
130.95
125.313
120.262
115.705
111.569
107.795
104.336
101.152
98.2087
95.4776
92.9469
90.5856
89.0661
635.97
574.053
509.432
448.225
393.296
345.668
305.427
272.038
244.565
221.946
203.206
187.565
174.286
162.7
152.851
144.291
136.77
130.121
124.21
118.918
114.153
109.838
105.911
102.32
99.0239
95.9858
93.174
90.5761
88.1418
86.5325
633.691
566.846
499.23
437.403
383.597
337.87
299.519
267.601
241.103
219.053
200.598
185.054
171.822
160.179
150.221
141.572
133.954
127.207
121.2
115.821
110.978
106.598
102.615
98.9801
95.6477
92.582
89.7488
87.1382
84.6739
83.0007
629.378
553.487
480.522
417.155
364.344
320.827
284.948
255.252
230.544
209.859
192.42
177.631
164.921
153.729
144.111
135.706
128.282
121.69
115.808
110.533
105.78
101.478
97.5674
93.9985
90.7284
87.7228
84.9454
82.3939
79.9584
78.2588
621.488
530.371
449.758
384.817
333.755
293.365
260.882
234.324
212.288
193.792
178.111
164.73
153.057
142.862
134.017
126.222
119.311
113.152
107.638
102.68
98.2034
94.1452
90.4514
87.0778
83.9843
81.1418
78.5105
76.1043
73.7701
72.0914
606.812
491.659
402.491
337.85
290.63
255.051
227.245
204.854
186.355
170.817
157.57
146.112
136.085
127.356
119.659
112.832
106.746
101.296
96.3945
91.9704
87.9624
84.3192
80.995
77.9542
75.1596
72.5924
70.2048
68.0394
65.891
64.2893
578.014
428.594
334.496
275.127
235.275
206.743
185.004
167.745
153.488
141.517
131.112
122.111
114.224
107.241
101.027
95.4706
90.4802
85.9821
81.9139
78.2231
74.8643
71.7999
68.9932
66.4205
64.0457
61.8678
59.8214
57.995
56.127
54.6663
517.121
331.359
245.355
199.295
170.792
151.282
136.542
124.98
115.257
107.016
99.8814
93.5802
87.9752
82.9544
78.4346
74.3506
70.6491
67.2856
64.2216
61.4245
58.8638
56.5175
54.3561
52.3723
50.525
48.8424
47.2271
45.8267
44.3433
43.0943
383.292
200.917
145.096
119.271
103.982
93.8494
85.8294
79.569