/*--------------------------------*- C++ -*----------------------------------*\
  =========                 |
  \\      /  F ield         | OpenFOAM: The Open Source CFD Toolbox
   \\    /   O peration     | Website:  https://openfoam.org
    \\  /    A nd           | Version:  7
     \\/     M anipulation  |
\*---------------------------------------------------------------------------*/
FoamFile
{
    version     2.0;
    format      ascii;
    class       volScalarField;
    location    "200";
    object      omega;
}
// * * * * * * * * * * * * * * * * * * * * * * * * * * * * * * * * * * * * * //

dimensions      [0 0 -1 0 0 0 0];

internalField   nonuniform List<scalar> 
27370
(
0.558858
0.694907
1.22064
8.18661
3.01858
3.29222
3.00287
2.58843
2.2123
1.90724
1.6663
1.47104
1.3027
1.15306
1.04309
0.979121
0.925404
0.879088
0.83868
0.803055
0.771339
0.742859
0.71708
0.693594
0.67112
0.557162
0.674248
1.07229
5.24491
4.68572
4.05814
3.17939
2.57505
2.15464
1.84987
1.61967
1.43567
1.27715
1.13436
1.02866
0.968728
0.917608
0.873246
0.834318
0.799821
0.768973
0.741167
0.715913
0.692842
0.670693
0.554925
0.650554
0.894087
2.54609
14.8082
6.73678
4.10647
2.98721
2.37085
1.98195
1.71404
1.51638
1.35938
1.22416
1.10005
1.00509
0.951155
0.904447
0.863414
0.827026
0.794484
0.765152
0.738529
0.714205
0.691871
0.670291
0.551754
0.632738
0.824752
1.44504
5.49626
96.9245
7.73093
4.40112
3.11727
2.43901
2.02311
1.74365
1.54315
1.39105
1.26805
1.1614
1.06035
0.977898
0.930576
0.888942
0.851848
0.818534
0.7884
0.760961
0.735833
0.712693
0.691306
0.670434
0.548119
0.613278
0.742871
1.02054
1.81059
3.95915
5.88841
4.00945
3.11489
2.52026
2.11906
1.83617
1.62845
1.47048
1.3465
1.24605
1.16133
1.08672
1.02283
0.951837
0.910834
0.874188
0.841062
0.8109
0.783275
0.757832
0.73429
0.712412
0.692045
0.671898
0.545048
0.597401
0.688898
0.854407
1.12178
1.58959
1.95714
1.77269
1.70001
1.59981
1.49766
1.40248
1.31709
1.24155
1.1749
1.11577
1.06258
1.01391
0.969551
0.930268
0.895029
0.862947
0.833477
0.806234
0.780933
0.757346
0.73529
0.714596
0.695198
0.675663
0.543257
0.587932
0.657773
0.763961
0.910784
1.07433
1.21074
1.29696
1.31584
1.30256
1.27045
1.22939
1.18548
1.14152
1.09894
1.05833
1.01979
0.983168
0.948478
0.916119
0.885973
0.857807
0.831416
0.80662
0.783273
0.761241
0.74042
0.720695
0.702106
0.682943
0.543287
0.586354
0.646994
0.727272
0.825913
0.931344
1.02521
1.09483
1.1327
1.14609
1.1426
1.1292
1.10769
1.08218
1.05451
1.02589
0.997057
0.968367
0.940167
0.912831
0.886551
0.86139
0.837341
0.814375
0.792455
0.771532
0.751568
0.73248
0.714451
0.69529
0.545824
0.594612
0.65652
0.728756
0.808159
0.888426
0.960895
1.01869
1.05783
1.07977
1.08744
1.08497
1.07592
1.0603
1.04098
1.01932
0.996232
0.972357
0.948144
0.923983
0.900165
0.876881
0.854248
0.832336
0.811184
0.790797
0.7712
0.752297
0.734507
0.714832
0.552209
0.617048
0.691189
0.767439
0.842049
0.911748
0.972782
1.02195
1.05743
1.07971
1.09032
1.0911
1.08666
1.07578
1.06013
1.04165
1.02122
0.999495
0.977002
0.954148
0.931261
0.908585
0.886294
0.864509
0.843321
0.822758
0.802914
0.783596
0.765664
0.74475
0.565536
0.66366
0.7647
0.856169
0.934696
1.00037
1.05382
1.09514
1.12444
1.1427
1.15075
1.1504
1.14536
1.1341
1.11839
1.09979
1.07913
1.05704
1.03406
1.01058
0.986949
0.963416
0.940185
0.917385
0.895156
0.873489
0.852618
0.832045
0.813532
0.790327
0.594052
0.759327
0.910371
1.02876
1.11605
1.17886
1.22386
1.25469
1.27362
1.28316
1.28323
1.27809
1.26671
1.25059
1.23095
1.20874
1.18469
1.15941
1.13337
1.10696
1.0805
1.05423
1.02837
1.00301
0.978363
0.954261
0.931312
0.908171
0.888582
0.86142
0.664512
0.975766
1.21581
1.37011
1.46198
1.51287
1.54075
1.55234
1.55199
1.54581
1.53167
1.51245
1.48921
1.46274
1.43383
1.40317
1.37135
1.33884
1.30605
1.2733
1.24089
1.20899
1.17787
1.14745
1.11824
1.08946
1.06284
1.03476
1.0135
0.979418
0.896594
1.57455
1.95135
2.11886
2.17941
2.18149
2.16677
2.13541
2.0974
2.05692
2.01367
1.96836
1.92166
1.87422
1.82636
1.77837
1.73055
1.68319
1.63656
1.59088
1.54642
1.50317
1.46161
1.42108
1.38307
1.34486
1.3116
1.27346
1.2494
1.20214
2.25129
3.88454
4.19845
4.15148
4.01723
3.8498
3.69802
3.55919
3.4313
3.31238
3.20002
3.09253
2.98955
2.89214
2.79868
2.70848
2.62136
2.53728
2.45638
2.37862
2.30434
2.233
2.1658
2.10028
2.04104
1.97934
1.93036
1.86793
1.83536
1.75783
25.3733
18.8431
15.4888
13.6037
12.3921
11.5339
10.864
10.3032
9.81081
9.36423
8.95175
8.56703
8.2071
7.87013
7.55353
7.256
6.97661
6.71454
6.46896
6.2389
6.02371
5.82177
5.63383
5.45503
5.2931
5.12946
4.99792
4.83337
4.75003
4.54226
0.55716
0.674241
1.0722
5.26369
4.81881
4.09568
3.18893
2.57806
2.15578
1.85034
1.6199
1.43579
1.27722
1.1344
1.0287
0.968752
0.917626
0.873258
0.834327
0.799828
0.768979
0.741171
0.715917
0.692845
0.670695
0.555815
0.660384
0.97698
3.8545
6.24569
4.26773
3.16118
2.50992
2.08865
1.79481
1.57682
1.40338
1.25375
1.11732
1.01547
0.959051
0.910384
0.867832
0.830269
0.796817
0.766777
0.7396
0.71484
0.69216
0.670318
0.553676
0.642226
0.851959
2.20102
83.5778
18.8749
6.1342
3.84744
2.84438
2.27912
1.91792
1.66736
1.48161
1.33332
1.20506
1.08586
0.993796
0.942761
0.898126
0.858642
0.823437
0.791811
0.763194
0.737134
0.713255
0.691277
0.669976
0.550628
0.62666
0.796052
1.28982
3.88279
70.5749
33.0656
6.39597
3.9745
2.91642
2.32577
1.95184
1.6953
1.5086
1.36548
1.24875
1.14697
1.04918
0.96874
0.923658
0.883669
0.847832
0.815495
0.786126
0.759294
0.734648
0.711894
0.690818
0.67019
0.547247
0.608818
0.727255
0.975496
1.61312
2.82472
4.57886
3.40519
2.81211
2.34784
2.01215
1.76572
1.57978
1.43557
1.32069
1.22652
1.14636
1.07531
1.01431
0.944644
0.905315
0.869935
0.837797
0.808416
0.78141
0.756465
0.733322
0.711767
0.691664
0.671724
0.544444
0.594491
0.6802
0.829549
1.0626
1.47656
1.79677
1.64215
1.60309
1.52713
1.44331
1.36138
1.28569
1.21732
1.15601
1.10092
1.05085
1.00469
0.9624
0.924735
0.890728
0.859603
0.830891
0.804254
0.779442
0.756253
0.734521
0.71409
0.694911
0.675545
0.542872
0.586156
0.652969
0.752435
0.887259
1.03612
1.16274
1.24654
1.27197
1.26482
1.24054
1.20518
1.16601
1.12587
1.08633
1.04816
1.01158
0.976571
0.943221
0.911951
0.882677
0.855216
0.829395
0.805064
0.782096
0.760376
0.739811
0.720298
0.701887
0.68286
0.54306
0.585331
0.644383
0.72158
0.815285
0.915044
1.00455
1.07205
1.1108
1.12636
1.12522
1.11465
1.09548
1.07202
1.04608
1.01892
0.991289
0.963626
0.936305
0.909709
0.884045
0.859394
0.835765
0.813148
0.791517
0.770835
0.751072
0.732151
0.714264
0.695212
0.545702
0.594065
0.655149
0.725877
0.803031
0.8807
0.950952
1.00735
1.04624
1.06872
1.07739
1.07586
1.06809
1.05359
1.03526
1.01447
0.992148
0.968935
0.945298
0.921634
0.898242
0.875321
0.852994
0.83134
0.810407
0.790205
0.770763
0.751991
0.734316
0.714725
0.552152
0.616792
0.690541
0.766073
0.839562
0.907931
0.967729
1.016
1.05107
1.07337
1.0843
1.08553
1.08153
1.07131
1.05621
1.03824
1.01827
0.996968
0.97485
0.95233
0.929736
0.907316
0.885247
0.863653
0.84263
0.822207
0.802484
0.783268
0.765429
0.744582
0.565516
0.663571
0.764463
0.855626
0.933631
0.998622
1.05135
1.09204
1.12095
1.13903
1.14711
1.14687
1.142
1.13104
1.11562
1.09731
1.07692
1.05509
1.03235
1.0091
0.985664
0.962313
0.939243
0.916585
0.894481
0.872922
0.852147
0.831653
0.813217
0.790064
0.59405
0.759331
0.910373
1.02869
1.11577
1.17823
1.2228
1.25318
1.27177
1.28104
1.28099
1.2758
1.26441
1.24839
1.22888
1.20682
1.18292
1.1578
1.13191
1.10565
1.07933
1.05319
1.02745
1.00219
0.977644
0.953626
0.930755
0.907676
0.888154
0.861031
0.664517
0.975826
1.21598
1.37036
1.46219
1.5129
1.54049
1.55169
1.5511
1.54462
1.53018
1.51084
1.48752
1.46103
1.43214
1.40154
1.36979
1.33736
1.30467
1.27202
1.23971
1.20791
1.17689
1.14656
1.11742
1.08871
1.06216
1.03413
1.01293
0.978868
0.896601
1.57466
1.95166
2.11935
2.17996
2.18188
2.16696
2.13522
2.09688
2.05608
2.01254
1.96704
1.9202
1.87267
1.82477
1.77678
1.72899
1.68167
1.63512
1.58951
1.54514
1.50197
1.46049
1.42004
1.3821
1.34394
1.31075
1.27263
1.24864
1.20138
2.2513
3.88474
4.19892
4.15201
4.01776
3.85004
3.69791
3.55865
3.43038
3.31115
3.19854
3.09094
2.98779
2.89027
2.79674
2.70654
2.61945
2.53544
2.45462
2.37696
2.30277
2.23152
2.16441
2.09896
2.03978
1.97812
1.9292
1.86676
1.83422
1.75671
25.3733
18.8428
15.4875
13.6012
12.3882
11.5289
10.8582
10.2971
9.80481
9.35863
8.94677
8.56276
8.20348
7.86714
7.55112
7.2541
6.97512
6.71337
6.46802
6.2381
6.02297
5.821
5.633
5.45405
5.29198
5.1281
4.9964
4.83153
4.74804
4.53988
0.554923
0.650545
0.894079
2.54474
18.1023
6.77552
4.12558
2.9961
2.37501
1.98398
1.71509
1.51695
1.35971
1.22436
1.10017
1.00518
0.951216
0.904492
0.863447
0.827051
0.794503
0.765167
0.738541
0.714215
0.691879
0.670297
0.553678
0.642238
0.852132
2.20635
86.2509
19.0684
6.14876
3.85579
2.84874
2.28136
1.91909
1.66799
1.48197
1.33353
1.20518
1.08594
0.993847
0.942798
0.898154
0.858663
0.823453
0.791823
0.763204
0.737141
0.713261
0.691282
0.66998
0.551397
0.629417
0.787503
1.48376
6.42161
8.68566
4.6288
3.22221
2.50082
2.06321
1.77088
1.56212
1.40419
1.27631
1.16495
1.05935
0.975131
0.928602
0.887386
0.850542
0.81739
0.787371
0.760021
0.734962
0.71188
0.690541
0.669731
0.548639
0.616109
0.75508
1.09364
2.19984
6.50628
10.5089
6.86171
4.36086
3.16788
2.50032
2.07946
1.7927
1.58599
1.43016
1.30754
1.20566
1.11593
1.02779
0.953375
0.911881
0.874662
0.840999
0.810374
0.782363
0.756611
0.73283
0.710768
0.690254
0.670056
0.545732
0.601255
0.703199
0.904673
1.33218
2.01486
2.55998
2.55951
2.30464
2.03432
1.80837
1.62711
1.48197
1.36443
1.26768
1.18631
1.1157
1.05234
0.997346
0.932346
0.895826
0.862637
0.832234
0.804239
0.778344
0.75429
0.731868
0.710896
0.691272
0.671695
0.5434
0.58953
0.665974
0.791682
0.97544
1.19807
1.37147
1.44653
1.44444
1.40932
1.35219
1.29113
1.23133
1.17498
1.12281
1.07474
1.0302
0.98856
0.949959
0.915117
0.883274
0.853848
0.826489
0.80094
0.777011
0.754541
0.733395
0.713443
0.694661
0.675594
0.542211
0.583125
0.644905
0.733674
0.849946
0.979887
1.09228
1.16627
1.19862
1.20179
1.18879
1.16294
1.13181
1.09822
1.06398
1.03009
0.997019
0.964903
0.933966
0.904654
0.876947
0.850755
0.825965
0.802475
0.780196
0.759042
0.738945
0.719816
0.701729
0.682942
0.542676
0.583605
0.639982
0.712065
0.797708
0.888652
0.971011
1.03405
1.07343
1.09225
1.09536
1.08865
1.07388
1.05398
1.03108
1.00649
0.981022
0.95522
0.929493
0.904239
0.879692
0.855964
0.833101
0.811118
0.790015
0.769772
0.750375
0.731757
0.714132
0.695269
0.545504
0.593173
0.652883
0.721076
0.794432
0.867751
0.934179
0.987986
1.02621
1.04945
1.0598
1.0598
1.0541
1.04173
1.0251
1.00586
0.984899
0.962879
0.940284
0.917524
0.894906
0.872644
0.850875
0.829693
0.809158
0.789292
0.770135
0.7516
0.734135
0.714693
0.552068
0.616409
0.689536
0.763877
0.835473
0.901556
0.95918
1.0058
1.04008
1.06233
1.07375
1.07575
1.07246
1.06338
1.04925
1.03219
1.01305
0.992504
0.971063
0.949145
0.927083
0.905127
0.883461
0.862215
0.841491
0.821325
0.801822
0.782791
0.765122
0.744392
0.565495
0.663478
0.764174
0.854865
0.932009
0.995822
1.04728
1.08685
1.11499
1.13269
1.14078
1.1407
1.13612
1.12563
1.11071
1.0929
1.073
1.05164
1.02932
1.00647
0.9834
0.960375
0.937596
0.915195
0.893317
0.871955
0.851353
0.831004
0.812709
0.789649
0.594057
0.759393
0.910496
1.02875
1.11552
1.17738
1.22119
1.25076
1.2687
1.27744
1.27718
1.27183
1.26039
1.24452
1.22521
1.20338
1.17975
1.15489
1.12927
1.10327
1.0772
1.05129
1.02577
1.0007
0.976331
0.952468
0.929738
0.906773
0.88737
0.860326
0.664533
0.975973
1.21637
1.37095
1.46279
1.51321
1.54031
1.55077
1.54972
1.54264
1.52763
1.50804
1.48453
1.45796
1.42909
1.39855
1.36691
1.33463
1.3021
1.26963
1.2375
1.20587
1.17501
1.14483
1.11585
1.08726
1.06083
1.03289
1.01179
0.977801
0.896614
1.57489
1.95231
2.12035
2.18111
2.18275
2.16748
2.13504
2.09605
2.05463
2.01051
1.96462
1.91747
1.86975
1.82174
1.77373
1.72597
1.67874
1.6323
1.58683
1.5426
1.49958
1.45825
1.41793
1.38012
1.34207
1.30898
1.27094
1.24703
1.19983
2.2513
3.8851
4.19977
4.15298
4.01872
3.85046
3.69763
3.55755
3.42852
3.30867
3.19555
3.08769
2.98421
2.88645
2.79281
2.70259
2.61555
2.53165
2.45098
2.37348
2.29947
2.22838
2.16143
2.0961
2.03706
1.97546
1.92664
1.86422
1.83173
1.75421
25.3732
18.8423
15.4852
13.5965
12.3808
11.5192
10.8467
10.2848
9.79244
9.34678
8.93588
8.55306
8.19491
7.85969
7.54473
7.24865
6.97046
6.70933
6.46444
6.23482
6.01984
5.81789
5.6298
5.45065
5.28834
5.12406
4.9921
4.82668
4.74296
4.53405
0.551763
0.632785
0.825099
1.44841
5.56935
103.103
7.78622
4.42099
3.1272
2.44462
2.02639
1.74559
1.54432
1.39177
1.26851
1.1617
1.06054
0.978029
0.930674
0.889015
0.851904
0.818578
0.788434
0.760988
0.735855
0.712711
0.691321
0.670446
0.550635
0.6267
0.796285
1.29186
3.90682
60.4024
33.8304
6.44324
3.98901
2.92334
2.32972
1.95421
1.69674
1.50949
1.36604
1.24911
1.14721
1.04934
0.968841
0.923734
0.883726
0.847876
0.815529
0.786154
0.759315
0.734666
0.711908
0.690829
0.6702
0.548643
0.616133
0.755177
1.09419
2.20508
6.52919
10.4905
6.88425
4.37305
3.17281
2.50287
2.08098
1.79366
1.58661
1.43056
1.3078
1.20583
1.11605
1.02787
0.953427
0.91192
0.874693
0.841022
0.810392
0.782378
0.756623
0.73284
0.710776
0.69026
0.670062
0.546266
0.60407
0.713269
0.938904
1.45965
2.34046
3.56957
3.43294
2.86636
2.39325
2.04567
1.79005
1.59754
1.44863
1.33032
1.23347
1.15078
1.07692
1.00173
0.935281
0.89792
0.864008
0.832999
0.804503
0.778198
0.753819
0.731142
0.709968
0.690177
0.670513
0.543938
0.592499
0.676309
0.82272
1.05049
1.47366
1.78791
1.88672
1.82605
1.70485
1.57852
1.46332
1.36266
1.27581
1.20077
1.13524
1.07679
1.02339
0.976032
0.917698
0.884536
0.854027
0.825782
0.799527
0.775036
0.75212
0.730623
0.7104
0.691393
0.672264
0.542179
0.583797
0.649913
0.751214
0.891087
1.05041
1.18535
1.26273
1.28622
1.27682
1.24827
1.20908
1.16667
1.12399
1.0825
1.04285
1.00507
0.96902
0.934969
0.903595
0.874421
0.847112
0.821453
0.797285
0.774483
0.752934
0.73254
0.713202
0.694934
0.676232
0.541459
0.579681
0.635781
0.712925
0.810133
0.916605
1.01192
1.07999
1.11751
1.13051
1.1269
1.11259
1.09043
1.06449
1.03659
1.00794
0.979191
0.950691
0.922781
0.895917
0.87019
0.845603
0.822122
0.799704
0.778307
0.75788
0.738381
0.719744
0.702075
0.683576
0.542264
0.581727
0.635113
0.701475
0.77822
0.858667
0.932439
0.990831
1.03028
1.05216
1.05973
1.05708
1.04753
1.03186
1.01265
0.991224
0.968481
0.945025
0.92131
0.897756
0.874624
0.85207
0.830181
0.809009
0.788581
0.7689
0.749971
0.73174
0.714453
0.695812
0.545318
0.59231
0.65056
0.715932
0.784931
0.853103
0.914893
0.965591
1.00277
1.0266
1.03862
1.04072
1.03693
1.02723
1.01271
0.99538
0.976124
0.955601
0.934323
0.912705
0.891069
0.869642
0.848584
0.828003
0.807976
0.788538
0.769742
0.751508
0.734315
0.715041
0.552017
0.616153
0.688721
0.761818
0.831316
0.894688
0.949651
0.994212
1.02737
1.04937
1.06124
1.06413
1.06158
1.05381
1.04086
1.02491
1.0068
0.987185
0.966588
0.945426
0.924031
0.90266
0.881503
0.860696
0.840351
0.82051
0.801286
0.782487
0.765039
0.744437
0.565511
0.663551
0.764202
0.854517
0.930777
0.993241
1.04315
1.08129
1.1084
1.1255
1.13347
1.13354
1.12918
1.11919
1.10485
1.08763
1.06831
1.0475
1.02571
1.00335
0.980726
0.958105
0.935689
0.91361
0.892016
0.870901
0.850518
0.830347
0.812238
0.789279
0.594097
0.759625
0.910987
1.02937
1.11591
1.17714
1.22003
1.24855
1.26561
1.27358
1.27297
1.26731
1.25568
1.23991
1.22079
1.19921
1.17586
1.1513
1.126
1.10031
1.07453
1.04891
1.02365
0.998822
0.974671
0.951001
0.92845
0.905625
0.886384
0.859424
0.66457
0.976275
1.21714
1.37216
1.46417
1.51431
1.5408
1.55029
1.5486
1.54064
1.5248
1.50478
1.48092
1.45417
1.42523
1.39471
1.36317
1.33103
1.29868
1.2664
1.23448
1.20307
1.17241
1.14243
1.11362
1.08519
1.05892
1.03109
1.01014
0.976228
0.896639
1.57525
1.95334
2.12197
2.18304
2.18437
2.16863
2.13522
2.09532
2.05296
2.00797
1.96147
1.91383
1.86576
1.81754
1.76943
1.72166
1.6745
1.62818
1.58287
1.53882
1.49598
1.45484
1.41469
1.37706
1.33914
1.30621
1.26824
1.24447
1.19734
2.25131
3.8856
4.20099
4.15437
4.02011
3.85107
3.69721
3.55589
3.42571
3.30485
3.19093
3.08257
2.97859
2.88046
2.7866
2.69631
2.60932
2.52555
2.44506
2.36778
2.294
2.22314
2.15641
2.09126
2.03241
1.97091
1.92224
1.85985
1.82743
1.74996
25.3732
18.8416
15.4819
13.5897
12.37
11.5047
10.8292
10.2655
9.77247
9.32707
8.91711
8.53563
8.17888
7.8451
7.53154
7.23674
6.95967
6.69947
6.45529
6.22618
6.01153
5.80972
5.62164
5.44231
5.27984
5.11511
4.98292
4.81684
4.73279
4.52332
0.548133
0.613355
0.743198
1.022
1.82062
3.9934
6.00192
4.04437
3.13088
2.5289
2.12414
1.83938
1.63056
1.4719
1.34746
1.24671
1.1618
1.08705
1.02306
0.951999
0.910958
0.874284
0.841137
0.81096
0.783322
0.757871
0.734322
0.712437
0.692066
0.671915
0.547259
0.60888
0.727497
0.976527
1.6182
3.21359
4.62108
3.44184
2.82468
2.35445
2.01606
1.76823
1.58146
1.43671
1.32147
1.22706
1.14674
1.07559
1.01451
0.94478
0.90542
0.870016
0.837861
0.808467
0.781451
0.756498
0.73335
0.711789
0.691683
0.671739
0.54574
0.601295
0.70334
0.905213
1.3343
2.02207
2.56744
2.56591
2.30959
2.03755
1.81045
1.6285
1.48294
1.36511
1.26816
1.18665
1.11595
1.05252
0.997482
0.932438
0.895898
0.862693
0.832279
0.804275
0.778373
0.754314
0.731887
0.710912
0.691285
0.671706
0.543941
0.592516
0.676364
0.822888
1.05094
1.47489
1.78937
1.88808
1.8273
1.70582
1.57922
1.46382
1.36303
1.27608
1.20097
1.13539
1.0769
1.02347
0.976095
0.917741
0.88457
0.854054
0.825804
0.799545
0.775051
0.752133
0.730633
0.710408
0.6914
0.67227
0.542255
0.5844
0.652558
0.75943
0.909701
1.15133
1.3489
1.45352
1.46812
1.43214
1.37395
1.31
1.24699
1.18781
1.13333
1.0834
1.03729
0.994202
0.954557
0.903576
0.873872
0.846155
0.820178
0.795765
0.77277
0.751066
0.730555
0.711131
0.692791
0.674103
0.54109
0.578672
0.635699
0.717166
0.822927
0.939935
1.04423
1.11549
1.15135
1.15949
1.15094
1.1306
1.10368
1.07369
1.04248
1.01113
0.980169
0.949829
0.920459
0.892651
0.86625
0.841163
0.817304
0.794606
0.773004
0.752433
0.732841
0.714156
0.69644
0.678086
0.540846
0.576806
0.627944
0.69505
0.776124
0.863155
0.943094
1.00471
1.04429
1.06409
1.0686
1.06301
1.04969
1.03108
1.00942
0.98601
0.961659
0.93689
0.912122
0.887818
0.864171
0.841279
0.819186
0.797906
0.777443
0.757784
0.73892
0.720801
0.703581
0.685347
0.541994
0.580404
0.631318
0.692698
0.761543
0.832465
0.898009
0.951646
0.990276
1.0142
1.02545
1.0265
1.0214
1.01011
0.994536
0.976327
0.956386
0.93536
0.913745
0.891966
0.870319
0.849002
0.828142
0.807824
0.788105
0.769014
0.750575
0.732747
0.715819
0.697371
0.545269
0.591984
0.649259
0.712318
0.777429
0.840748
0.89799
0.945468
0.981246
1.00524
1.01855
1.02254
1.02041
1.01325
1.00084
0.985439
0.967911
0.948927
0.929007
0.908576
0.88796
0.867406
0.847086
0.827129
0.807629
0.788635
0.770213
0.752284
0.73538
0.716241
0.552088
0.616397
0.688866
0.761178
0.82896
0.889858
0.942173
0.984553
1.01635
1.03785
1.04989
1.05349
1.05156
1.04493
1.0331
1.01823
1.00113
0.982449
0.962702
0.942304
0.921589
0.900815
0.880177
0.859818
0.839858
0.820346
0.801407
0.782837
0.765626
0.745116
0.565627
0.664064
0.765111
0.855493
0.931235
0.992562
1.04097
1.0776
1.10349
1.11976
1.12738
1.12743
1.12314
1.11346
1.09959
1.08289
1.06409
1.04381
1.02252
1.00062
0.97844
0.956219
0.934163
0.912404
0.891094
0.870226
0.850065
0.830066
0.812159
0.789265
0.594208
0.760218
0.912256
1.0312
1.11789
1.1787
1.2207
1.24808
1.2641
1.27103
1.26991
1.26369
1.25171
1.23585
1.21677
1.19533
1.17218
1.14787
1.12282
1.09741
1.07191
1.04656
1.02155
0.996958
0.973026
0.949548
0.927182
0.904488
0.885431
0.858527
0.664652
0.976854
1.21858
1.37444
1.46694
1.51698
1.54289
1.55128
1.54878
1.53958
1.52284
1.50208
1.47764
1.4505
1.42132
1.39071
1.35915
1.32709
1.29486
1.26274
1.23101
1.19979
1.16933
1.13954
1.11092
1.08265
1.05656
1.02883
1.00806
0.974207
0.896682
1.57582
1.95491
2.12446
2.18607
2.18715
2.17089
2.13631
2.09523
2.05158
2.00547
1.95806
1.90968
1.86105
1.81246
1.76411
1.71625
1.66908
1.62284
1.57766
1.53378
1.49113
1.45019
1.41023
1.37279
1.33502
1.30228
1.26441
1.24078
1.19378
2.25132
3.88626
4.20258
4.15618
4.02192
3.85187
3.69661
3.55363
3.42184
3.29954
3.18444
3.07527
2.97056
2.87186
2.77763
2.68717
2.60017
2.51651
2.43622
2.35919
2.28569
2.21511
2.14867
2.08374
2.02515
1.96379
1.91533
1.85309
1.82046
1.74384
25.3732
18.8407
15.4778
13.5809
12.3555
11.4848
10.8047
10.2378
9.743
9.29708
8.88758
8.50722
8.15183
7.81958
7.50762
7.21437
6.93873
6.67976
6.43662
6.20832
5.99427
5.79285
5.60502
5.42573
5.26321
5.09836
4.96542
4.80166
4.70456
4.51525
0.545063
0.597475
0.689148
0.855244
1.12421
1.59586
1.96737
1.77859
1.70425
1.60293
1.49991
1.40413
1.31831
1.24246
1.17558
1.11628
1.06297
1.0142
0.96978
0.930445
0.895169
0.863058
0.833566
0.806306
0.780991
0.757394
0.73533
0.714629
0.695226
0.675685
0.544457
0.594553
0.6804
0.830176
1.06415
1.47868
1.80383
1.64572
1.60632
1.52956
1.4451
1.3627
1.28669
1.21807
1.15658
1.10135
1.05118
1.00494
0.962599
0.92489
0.89085
0.859701
0.83097
0.804318
0.779495
0.756296
0.734556
0.71412
0.694936
0.675566
0.543408
0.589573
0.666106
0.792056
0.976325
1.1996
1.37337
1.44842
1.44621
1.41078
1.35332
1.292
1.232
1.1755
1.12321
1.07505
1.03044
0.988748
0.950107
0.915235
0.883368
0.853924
0.82655
0.80099
0.777053
0.754575
0.733423
0.713467
0.694681
0.675611
0.542184
0.583822
0.649981
0.751389
0.891467
1.05104
1.18613
1.26354
1.287
1.27751
1.24884
1.20954
1.16704
1.12427
1.08273
1.04303
1.00521
0.969134
0.935061
0.903669
0.874481
0.847161
0.821493
0.797318
0.774511
0.752957
0.732559
0.713218
0.694947
0.676243
0.541092
0.578682
0.635724
0.717224
0.823042
0.940125
1.04447
1.11575
1.15161
1.15973
1.15114
1.13077
1.10382
1.0738
1.04257
1.01121
0.98023
0.949879
0.9205
0.892684
0.866278
0.841185
0.817323
0.794622
0.773017
0.752444
0.73285
0.714164
0.696446
0.678092
0.540457
0.575484
0.626166
0.693914
0.776941
0.866669
0.949095
1.01194
1.05149
1.07032
1.0735
1.0666
1.05172
1.03189
1.00921
0.984957
0.959914
0.934591
0.909398
0.884818
0.86098
0.837948
0.815759
0.794419
0.773927
0.754261
0.735405
0.717312
0.700106
0.681995
0.540632
0.575542
0.623531
0.683594
0.753067
0.826017
0.893912
0.949154
0.988346
1.01191
1.02232
1.02235
1.0162
1.00369
0.987304
0.968425
0.947955
0.92651
0.90458
0.882605
0.860856
0.839514
0.818688
0.798448
0.778839
0.759879
0.741585
0.723925
0.707113
0.689037
0.542073
0.580462
0.630254
0.688387
0.751497
0.815113
0.873875
0.92306
0.960142
0.984894
0.998525
1.00264
1.00036
0.992962
0.980508
0.965089
0.947609
0.92874
0.908996
0.888804
0.868487
0.848278
0.82834
0.808787
0.789701
0.77113
0.753122
0.735635
0.71903
0.70067
0.545521
0.592857
0.650266
0.712272
0.774784
0.834369
0.887755
0.932248
0.966381
0.990019
1.00396
1.0093
1.00831
1.00308
0.99246
0.97866
0.962596
0.944929
0.926181
0.906775
0.887044
0.867245
0.847567
0.828151
0.809103
0.790486
0.77238
0.754697
0.73805
0.718944
0.552411
0.617673
0.691003
0.763543
0.830553
0.889745
0.939892
0.980219
1.01051
1.03115
1.04297
1.04687
1.04525
1.03932
1.02831
1.01425
0.997939
0.979994
0.960928
0.94115
0.920989
0.900703
0.880491
0.860501
0.840857
0.821611
0.802903
0.784505
0.767506
0.746992
0.56594
0.665439
0.767734
0.859068
0.935057
0.995824
1.04307
1.07828
1.10285
1.11802
1.12496
1.12471
1.12019
1.11043
1.09677
1.08034
1.06186
1.04191
1.02097
0.999405
0.977542
0.95562
0.933838
0.912325
0.891235
0.870556
0.850571
0.83069
0.812971
0.790056
0.594459
0.761493
0.914961
1.03526
1.12276
1.18361
1.22498
1.25124
1.2661
1.27171
1.26986
1.26271
1.25013
1.23384
1.21454
1.19299
1.16984
1.14559
1.12067
1.0954
1.07008
1.0449
1.02007
0.995654
0.971889
0.948554
0.926339
0.903732
0.884858
0.857935
0.664816
0.977932
1.22115
1.37854
1.47209
1.52238
1.54784
1.55506
1.55162
1.54087
1.52297
1.50112
1.4758
1.44797
1.41829
1.38734
1.35559
1.32343
1.29119
1.25913
1.22749
1.1964
1.16609
1.13644
1.10798
1.07984
1.05391
1.02626
1.00567
0.971831
0.896761
1.57672
1.9573
2.12826
2.19078
2.19176
2.17495
2.13906
2.09651
2.05121
2.00362
1.95494
1.90552
1.85605
1.80682
1.75803
1.7099
1.66261
1.61634
1.57122
1.52746
1.48497
1.44421
1.40442
1.36719
1.32956
1.29703
1.25925
1.23583
1.18884
2.25134
3.8871
4.20461
4.15849
4.02426
3.8529
3.69583
3.55067
3.41674
3.29245
3.17569
3.06526
2.95963
2.86004
2.76522
2.67443
2.58732
2.50372
2.42363
2.34686
2.27369
2.20342
2.13734
2.0727
2.01445
1.95329
1.90515
1.84298
1.81082
1.73352
25.3732
18.8397
15.4727
13.5698
12.3368
11.4585
10.7716
10.1995
9.70111
9.25334
8.84335
8.4635
8.10921
7.77838
7.46809
7.17661
6.9027
6.64534
6.40363
6.17656
5.96354
5.76291
5.57575
5.3968
5.23477
5.06969
4.93775
4.77076
4.68673
4.47601
0.54327
0.587992
0.657948
0.76442
0.91183
1.07605
1.21301
1.29936
1.3179
1.30433
1.27184
1.23049
1.18635
1.14221
1.09948
1.05876
1.02013
0.983441
0.948698
0.916296
0.886117
0.857925
0.831512
0.8067
0.783339
0.761296
0.740466
0.720734
0.702139
0.68297
0.542883
0.586208
0.653115
0.752806
0.888049
1.03738
1.16439
1.24831
1.27362
1.26626
1.2417
1.20612
1.16675
1.12647
1.0868
1.04853
1.01188
0.976814
0.943417
0.91211
0.882807
0.855322
0.829482
0.805136
0.782156
0.760426
0.739853
0.720334
0.701917
0.682884
0.542219
0.583163
0.645009
0.733924
0.850454
0.980694
1.09331
1.16737
1.1997
1.20274
1.18962
1.16362
1.13236
1.09867
1.06434
1.03038
0.997255
0.965095
0.934123
0.904782
0.877053
0.850842
0.826037
0.802535
0.780246
0.759084
0.73898
0.719846
0.701754
0.682962
0.541464
0.579705
0.635845
0.713068
0.810409
0.917035
1.01247
1.08059
1.11811
1.13106
1.1274
1.11301
1.09078
1.06478
1.03683
1.00814
0.979352
0.950824
0.922892
0.896009
0.870266
0.845666
0.822174
0.799748
0.778344
0.757911
0.738407
0.719766
0.702094
0.683592
0.540849
0.576819
0.627976
0.695118
0.776248
0.863346
0.943338
1.00498
1.04457
1.06436
1.06885
1.06323
1.04988
1.03123
1.00956
0.98612
0.961752
0.936968
0.912187
0.887873
0.864217
0.841318
0.819218
0.797933
0.777466
0.757804
0.738936
0.720816
0.703593
0.685357
0.540633
0.575547
0.623543
0.683617
0.753108
0.826079
0.893991
0.949244
0.98844
1.012
1.0224
1.02243
1.01628
1.00375
0.987356
0.96847
0.947993
0.926543
0.904608
0.882628
0.860876
0.839532
0.818703
0.798461
0.778849
0.759888
0.741593
0.723931
0.707119
0.689042
0.54113
0.577058
0.624624
0.681302
0.743871
0.807696
0.867043
0.916811
0.954284
0.979198
0.992831
0.996873
0.994468
0.986891
0.974368
0.958879
0.941354
0.922466
0.902731
0.882581
0.862335
0.842219
0.822387
0.80295
0.783988
0.765544
0.747661
0.730308
0.713799
0.695682
0.542778
0.582947
0.633804
0.691193
0.751289
0.810222
0.864047
0.909453
0.944573
0.969083
0.98375
0.989737
0.989054
0.984234
0.974114
0.960678
0.944988
0.927705
0.909349
0.890346
0.871028
0.851647
0.832387
0.813386
0.794746
0.77653
0.758804
0.741519
0.725142
0.706678
0.546317
0.595855
0.655255
0.718148
0.779952
0.837409
0.888025
0.929961
0.962292
0.985019
0.998831
1.00467
1.00421
0.999952
0.990536
0.977721
0.962607
0.945817
0.92786
0.90915
0.890021
0.87073
0.851477
0.83241
0.813646
0.795253
0.777329
0.759762
0.74329
0.724036
0.55319
0.62079
0.696616
0.771013
0.838694
0.89731
0.946027
0.984608
1.0133
1.03272
1.04377
1.04734
1.04561
1.03968
1.02896
1.01524
0.999292
0.981715
0.963007
0.943565
0.923709
0.903693
0.883714
0.863921
0.844442
0.825325
0.806729
0.788383
0.771529
0.750843
0.566616
0.668364
0.773366
0.867091
0.944537
1.00561
1.05221
1.08617
1.10932
1.12309
1.12889
1.12797
1.12268
1.11231
1.09842
1.08186
1.06332
1.04339
1.0225
1.00102
0.979257
0.957441
0.935763
0.914346
0.893344
0.872735
0.852826
0.832957
0.815379
0.792291
0.594969
0.764007
0.920195
1.04312
1.13246
1.19405
1.23515
1.26036
1.2739
1.27784
1.27495
1.26639
1.25277
1.2356
1.21566
1.19365
1.17017
1.14569
1.12063
1.0953
1.06995
1.04479
1.02
0.995626
0.97192
0.948632
0.926495
0.903882
0.885168
0.858104
0.665136
0.979926
1.22573
1.38573
1.48116
1.53219
1.55741
1.56337
1.55882
1.54614
1.52668
1.50328
1.47665
1.44773
1.41718
1.38557
1.35333
1.32082
1.28836
1.25617
1.22448
1.19338
1.16312
1.13352
1.10515
1.07707
1.05126
1.02362
1.00322
0.969317
0.896909
1.57821
1.96113
2.13424
2.19822
2.19929
2.18189
2.14447
2.10008
2.05267
2.00315
1.95273
1.90186
1.85116
1.80096
1.75146
1.70283
1.65521
1.60877
1.56359
1.51986
1.47745
1.43683
1.39718
1.36014
1.32264
1.29032
1.25264
1.22939
1.18253
2.25137
3.88825
4.20735
4.1616
4.02737
3.85433
3.69485
3.54686
3.41008
3.28312
3.16411
3.05185
2.94496
2.84414
2.74846
2.65714
2.5698
2.4862
2.40627
2.32977
2.25696
2.18707
2.12143
2.05714
1.99935
1.93847
1.89073
1.82883
1.79677
1.72003
25.3732
18.8385
15.4663
13.5555
12.3123
11.4234
10.7268
10.1467
9.64248
9.19104
8.77921
8.39896
8.04535
7.7157
7.40713
7.11766
6.84586
6.59058
6.35085
6.12557
5.91417
5.71492
5.52901
5.35097
5.18995
5.0253
4.89423
4.72737
4.64382
4.43329
0.543297
0.586399
0.647111
0.727541
0.826443
0.932172
1.02629
1.09602
1.13383
1.14712
1.14351
1.12995
1.10832
1.0827
1.05494
1.02625
0.997354
0.968613
0.940372
0.913001
0.886692
0.861508
0.837439
0.814457
0.792525
0.771591
0.751618
0.732522
0.714487
0.69532
0.543068
0.58537
0.644485
0.721808
0.815721
0.915712
1.00542
1.07302
1.11176
1.12724
1.12601
1.11531
1.09604
1.07249
1.04647
1.01924
0.991557
0.963849
0.936491
0.909864
0.884175
0.859502
0.835856
0.813224
0.791582
0.77089
0.751118
0.73219
0.714298
0.695239
0.542683
0.583635
0.640059
0.712232
0.798018
0.889124
0.971619
1.03473
1.07412
1.0929
1.09595
1.08918
1.07432
1.05435
1.03139
1.00675
0.981242
0.955405
0.929647
0.904369
0.879801
0.856056
0.833178
0.811183
0.790071
0.769819
0.750414
0.731791
0.714161
0.695293
0.542269
0.581748
0.635165
0.701583
0.778413
0.858959
0.932814
0.991256
1.03072
1.05258
1.06012
1.05744
1.04783
1.03213
1.01288
0.991416
0.968644
0.945163
0.921427
0.897855
0.874707
0.852141
0.830241
0.80906
0.788625
0.768937
0.750002
0.731767
0.714476
0.695831
0.541997
0.580416
0.631348
0.69276
0.761649
0.832623
0.898214
0.951881
0.990525
1.01444
1.02569
1.02671
1.02159
1.01028
0.994681
0.976451
0.956493
0.935452
0.913823
0.892033
0.870377
0.849051
0.828184
0.80786
0.788136
0.76904
0.750597
0.732766
0.715836
0.697384
0.542075
0.580469
0.63027
0.688417
0.751547
0.815187
0.87397
0.923171
0.960262
0.985015
0.998642
1.00275
1.00046
0.993052
0.980586
0.965158
0.947669
0.928792
0.909041
0.888843
0.868521
0.848307
0.828364
0.808808
0.78972
0.771146
0.753135
0.735646
0.71904
0.700678
0.542778
0.582949
0.633809
0.691203
0.751306
0.810247
0.86408
0.909492