/*--------------------------------*- C++ -*----------------------------------*\
  =========                 |
  \\      /  F ield         | OpenFOAM: The Open Source CFD Toolbox
   \\    /   O peration     | Website:  https://openfoam.org
    \\  /    A nd           | Version:  7
     \\/     M anipulation  |
\*---------------------------------------------------------------------------*/
FoamFile
{
    version     2.0;
    format      ascii;
    class       volScalarField;
    location    "200";
    object      p;
}
// * * * * * * * * * * * * * * * * * * * * * * * * * * * * * * * * * * * * * //

dimensions      [0 2 -2 0 0 0 0];

internalField   nonuniform List<scalar> 
27370
(
120.581
190.189
290.961
500.228
-42.0393
-26.252
-16.656
-10.4219
-6.25492
-3.50165
-1.5647
0.110348
1.98428
3.83838
2.60803
1.7882
1.38831
1.09927
0.875546
0.70802
0.577886
0.470603
0.398166
0.276786
0.475121
104.393
157.126
258.762
434.429
-41.4023
-25.0576
-15.7177
-9.81471
-5.94393
-3.3902
-1.58579
-0.0268617
1.7037
3.35334
2.37951
1.672
1.31616
1.05359
0.844683
0.685662
0.561015
0.458353
0.38557
0.28079
0.442869
85.0366
108.719
191.571
315.131
-56.3094
-35.3289
-21.2065
-13.2745
-8.37486
-5.19164
-3.0577
-1.49296
-0.0981946
1.42586
2.83115
2.07692
1.511
1.21319
0.983786
0.796389
0.650733
0.534834
0.438511
0.368818
0.270838
0.42359
67.8121
70.4482
109.596
183.01
205.601
-165.157
-55.5906
-29.7952
-17.4089
-10.7223
-6.79051
-4.3098
-2.63115
-1.34137
-0.145252
1.12793
2.21425
1.73737
1.32123
1.08823
0.896494
0.735037
0.605954
0.501059
0.412568
0.347381
0.25528
0.397263
51.8888
50.7505
59.037
85.0379
68.6907
11.0932
-65.8775
-62.1711
-35.8296
-20.859
-12.4962
-7.72994
-4.92802
-3.18503
-1.97994
-0.988941
-0.03561
0.87548
1.4684
1.40233
1.12279
0.952775
0.798765
0.664525
0.553486
0.460968
0.381387
0.321572
0.235743
0.363242
37.5925
36.6938
36.5011
34.3119
19.9104
-2.82894
-28.8816
-27.7411
-19.0986
-11.9695
-7.53932
-4.77263
-3.01206
-1.84825
-1.00313
-0.305291
0.312541
0.800544
1.03137
1.04825
0.927647
0.811352
0.695045
0.588065
0.495427
0.415972
0.346001
0.292125
0.213124
0.322783
26.2156
25.0698
23.2517
19.4089
10.8165
-5.8713
-14.7884
-17.0474
-12.4536
-8.47618
-5.67645
-3.70205
-2.35539
-1.42889
-0.750213
-0.207357
0.248778
0.602371
0.781004
0.817354
0.757964
0.678106
0.591995
0.508766
0.433612
0.367289
0.307336
0.259824
0.188367
0.277431
18.0093
16.7589
14.5793
10.2314
4.17879
-4.32798
-9.34502
-10.4796
-8.31624
-6.08975
-4.26704
-2.86584
-1.85118
-1.12258
-0.578328
-0.150152
0.193231
0.448997
0.589696
0.629637
0.601727
0.550316
0.489407
0.427245
0.368756
0.315549
0.265992
0.22533
0.162358
0.229187
12.4591
11.1419
8.86903
4.94187
0.557126
-4.17717
-6.73013
-7.20437
-5.99894
-4.59255
-3.34156
-2.32624
-1.55104
-0.970011
-0.526282
-0.178076
0.0946659
0.293967
0.410923
0.456497
0.452231
0.42472
0.385913
0.343127
0.300788
0.260808
0.22216
0.189041
0.135817
0.180318
8.99695
7.59228
5.2856
1.94315
-1.20709
-3.96994
-5.30823
-5.42592
-4.63347
-3.67122
-2.77412
-2.01436
-1.40918
-0.936201
-0.565437
-0.271885
-0.0423864
0.126577
0.233761
0.28803
0.303761
0.297673
0.279414
0.255205
0.228921
0.202539
0.175547
0.15097
0.109177
0.133094
7.1015
5.59272
3.282
0.511
-1.79189
-3.51211
-4.28197
-4.2817
-3.75121
-3.08274
-2.43128
-1.85697
-1.37899
-0.989102
-0.67292
-0.416832
-0.212785
-0.0577258
0.0496276
0.115896
0.150884
0.165569
0.167462
0.161749
0.151832
0.139686
0.125349
0.110638
0.0824357
0.089513
6.30203
4.71663
2.50621
0.273734
-1.47895
-2.71024
-3.2983
-3.364
-3.0761
-2.6549
-2.20867
-1.78984
-1.41926
-1.10022
-0.829005
-0.600355
-0.411075
-0.259989
-0.146029
-0.0648979
-0.0101388
0.0255258
0.0477789
0.0608984
0.0679062
0.0707956
0.070273
0.0669952
0.0549797
0.0510035
6.17424
4.62171
2.69769
0.940139
-0.495937
-1.57332
-2.2156
-2.47484
-2.45246
-2.2777
-2.03169
-1.76238
-1.49592
-1.24542
-1.01629
-0.810841
-0.631019
-0.47861
-0.354355
-0.256477
-0.181327
-0.124324
-0.081369
-0.0489927
-0.0244932
-0.00581644
0.00858405
0.018355
0.0253241
0.0180696
6.29928
5.01364
3.55234
2.16719
0.886736
-0.209222
-1.02215
-1.5406
-1.80531
-1.88878
-1.8517
-1.73896
-1.5828
-1.40506
-1.22019
-1.0382
-0.86662
-0.711094
-0.575202
-0.459956
-0.364326
-0.28597
-0.222223
-0.170395
-0.128066
-0.0931396
-0.0630382
-0.0388075
-0.0105369
-0.0111723
6.24355
5.53329
4.56643
3.46626
2.29594
1.16192
0.178882
-0.588642
-1.12759
-1.46446
-1.63811
-1.68767
-1.64838
-1.54924
-1.41303
-1.2573
-1.09553
-0.937902
-0.791497
-0.660345
-0.545927
-0.447912
-0.364898
-0.295009
-0.23601
-0.185877
-0.141052
-0.102107
-0.0534054
-0.0389012
6.12304
5.83299
5.22321
4.35398
3.31811
2.21739
1.16381
0.249627
-0.475352
-1.00305
-1.35026
-1.54516
-1.61974
-1.60479
-1.5272
-1.40925
-1.26888
-1.12014
-0.97339
-0.835518
-0.710383
-0.599536
-0.502889
-0.419499
-0.347583
-0.285362
-0.228976
-0.178168
-0.112686
-0.0769606
104.344
157.137
258.559
433.632
-41.1104
-24.8957
-15.6761
-9.80562
-5.94337
-3.39233
-1.58843
-0.0283752
1.7041
3.35395
2.37973
1.67218
1.31631
1.05372
0.844793
0.685764
0.561109
0.458438
0.385644
0.280848
0.442914
92.7751
129.41
227.471
380.669
-39.2201
-23.4572
-14.6811
-9.19769
-5.61692
-3.24367
-1.55975
-0.111249
1.47666
2.92874
2.18036
1.56837
1.24962
1.01057
0.815419
0.664308
0.544831
0.446486
0.37365
0.286476
0.403243
77.7004
90.938
166.627
265.896
376.795
-58.0352
-33.7494
-20.1246
-12.5183
-7.88544
-4.89474
-2.88772
-1.41905
-0.126307
1.25917
2.47765
1.9089
1.42148
1.15478
0.945303
0.769735
0.631036
0.519777
0.427373
0.357628
0.276719
0.384329
62.308
62.7454
89.7932
158.157
167.318
23.2419
-140.46
-53.5148
-28.7302
-16.7337
-10.244
-6.44771
-4.06412
-2.45673
-1.2352
-0.127047
1.02273
1.95372
1.60716
1.24834
1.03919
0.86313
0.711182
0.587988
0.487142
0.402159
0.336873
0.260649
0.360623
47.8699
46.7809
51.5377
73.7331
58.9221
0.34688
-56.8245
-55.5835
-33.5529
-19.8812
-11.9778
-7.39846
-4.68495
-2.99168
-1.82686
-0.888702
-0.0125717
0.806248
1.34104
1.31309
1.06645
0.91265
0.770277
0.643357
0.537183
0.448141
0.371679
0.311747
0.240353
0.329857
34.8661
33.8757
32.9851
29.1294
16.356
-1.90244
-25.4924
-24.9353
-17.5738
-11.2213
-7.11069
-4.50678
-2.83622
-1.72609
-0.920393
-0.260958
0.313785
0.759858
0.975058
0.992936
0.886617
0.779606
0.670752
0.56921
0.480557
0.404078
0.336893
0.282951
0.216769
0.293202
24.4595
23.3052
21.3028
17.033
8.86414
-5.64998
-13.4638
-15.4982
-11.6342
-8.00423
-5.37871
-3.51504
-2.23287
-1.34615
-0.697107
-0.18166
0.246329
0.572974
0.738245
0.776113
0.725242
0.651429
0.570564
0.491611
0.41982
0.356109
0.298688
0.251249
0.190863
0.252078
16.8996
15.7022
13.5158
9.22908
3.40404
-4.26199
-8.76405
-9.78036
-7.89998
-5.82566
-4.1021
-2.76754
-1.7924
-1.08851
-0.562568
-0.150482
0.177729
0.420469
0.55509
0.596664
0.573846
0.526756
0.469908
0.411278
0.355722
0.304883
0.257671
0.2173
0.163581
0.208272
11.7686
10.5362
8.3276
4.53568
0.310592
-4.03306
-6.41521
-6.84167
-5.76303
-4.44135
-3.24963
-2.27547
-1.52638
-0.961876
-0.52997
-0.191325
0.0732493
0.266239
0.380858
0.427932
0.427168
0.403147
0.367731
0.327997
0.288296
0.250522
0.214071
0.181518
0.13573
0.163825
8.56712
7.26226
5.04422
1.83204
-1.21804
-3.80914
-5.09227
-5.20798
-4.48709
-3.57788
-2.71994
-1.98846
-1.40191
-0.941143
-0.578719
-0.291313
-0.0663691
0.0996629
0.206304
0.262157
0.280721
0.277625
0.262297
0.240787
0.216907
0.192597
0.167666
0.14395
0.107842
0.120791
6.82404
5.4221
3.20687
0.541323
-1.69882
-3.34972
-4.11089
-4.12938
-3.64676
-3.01635
-2.39421
-1.8415
-1.37818
-0.998222
-0.688719
-0.437205
-0.236126
-0.0825764
0.0248896
0.092626
0.129918
0.147112
0.151508
0.148154
0.140396
0.130175
0.117735
0.104161
0.0800213
0.0809791
6.10743
4.6306
2.51092
0.35347
-1.35889
-2.56234
-3.15677
-3.24516
-2.99182
-2.59986
-2.17695
-1.77569
-1.41767
-1.10742
-0.842236
-0.61767
-0.430944
-0.281089
-0.167107
-0.0849507
-0.0285153
0.00908701
0.0333531
0.0484377
0.0573047
0.0619182
0.0630764
0.0611562
0.0517674
0.0456802
6.02044
4.57273
2.72348
1.01486
-0.392387
-1.45465
-2.10275
-2.3793
-2.38071
-2.22769
-1.99994
-1.74509
-1.48957
-1.24711
-1.0238
-0.822471
-0.645387
-0.494536
-0.370789
-0.272575
-0.196495
-0.138228
-0.0938363
-0.0599653
-0.0339779
-0.013842
0.00196645
0.0132222
0.0216317
0.0152813
6.16424
4.96645
3.5569
2.20525
0.950332
-0.12993
-0.941016
-1.46702
-1.74498
-1.84254
-1.81851
-1.71698
-1.56996
-1.39943
-1.22014
-1.04237
-0.873877
-0.720434
-0.585737
-0.470944
-0.375192
-0.296321
-0.231795
-0.179031
-0.135679
-0.0996551
-0.0685037
-0.0428333
-0.0140451
-0.0119925
6.13869
5.46426
4.52908
3.45531
2.30954
1.19537
0.224115
-0.539271
-1.08012
-1.42232
-1.60293
-1.65991
-1.62772
-1.53497
-1.40427
-1.25313
-1.09506
-0.940265
-0.795886
-0.666039
-0.552324
-0.454543
-0.371412
-0.30115
-0.241609
-0.190778
-0.145262
-0.1052
-0.056397
-0.0387683
6.03388
5.74992
5.15769
4.30714
3.29079
2.2094
1.17208
0.26938
-0.449079
-0.974267
-1.32189
-1.51916
-1.59719
-1.58615
-1.51252
-1.39829
-1.26127
-1.11537
-0.970919
-0.834796
-0.710911
-0.600884
-0.504706
-0.4215
-0.349552
-0.287111
-0.230413
-0.179033
-0.113491
-0.0760597
85.0167
108.798
191.665
315.452
-55.6537
-35.1163
-21.0743
-13.2195
-8.35791
-5.19044
-3.06252
-1.49873
-0.101451
1.42641
2.83265
2.0775
1.51137
1.2135
0.984062
0.796648
0.650979
0.535066
0.438721
0.369001
0.270977
0.423702
77.7037
90.9875
166.769
266.301
377.708
-58.5611
-33.6949
-20.0732
-12.4917
-7.87649
-4.89426
-2.89071
-1.42252
-0.128301
1.25945
2.47906
1.90917
1.4216
1.15491
0.945436
0.769872
0.631175
0.519911
0.427497
0.357736
0.276801
0.384389
66.8187
68.5375
120.932
185.555
224.882
-56.7173
-30.5408
-17.8727
-10.974
-6.89397
-4.30742
-2.56611
-1.26753
-0.11359
1.0882
2.10263
1.67875
1.29375
1.07026
0.885925
0.727467
0.599875
0.496112
0.409202
0.342342
0.267381
0.365651
53.8905
52.4868
64.005
108.695
90.3935
19.9244
-94.6365
-90.9357
-47.5583
-26.0658
-15.1902
-9.24343
-5.78884
-3.64329
-2.19945
-1.09767
-0.105254
0.891014
1.66613
1.42255
1.14157
0.965621
0.80992
0.672324
0.558785
0.46466
0.384729
0.322142
0.251547
0.342274
41.5392
40.2126
41.2785
43.0962
46.0761
-0.710631
-40.7087
-43.2502
-28.7684
-17.7395
-10.8827
-6.76739
-4.28731
-2.72893
-1.65539
-0.798088
-0.0141002
0.699206
1.16095
1.17276
0.97962
0.849356
0.722869
0.607659
0.509746
0.42669
0.354876
0.297512
0.231433
0.312039
30.4954
29.3712
28.0974
24.8986
11.8645
-6.39945
-19.8398
-20.8479
-15.1873
-9.98172
-6.43836
-4.11597
-2.59703
-1.57607
-0.834073
-0.233951
0.279076
0.672333
0.871326
0.900473
0.817155
0.725312
0.62835
0.536165
0.454562
0.38344
0.320572
0.269144
0.207998
0.276192
21.6339
20.5297
18.599
14.2702
6.44298
-4.41173
-11.8867
-13.15
-10.2575
-7.25343
-4.94367
-3.26271
-2.0862
-1.2627
-0.657769
-0.180589
0.210205
0.505474
0.659158
0.703875
0.665881
0.603138
0.53169
0.460495
0.394872
0.336048
0.282704
0.237805
0.182217
0.236171
15.1232
14.0451
12.0212
7.96126
2.43342
-3.93032
-7.88579
-8.67058
-7.18905
-5.4025
-3.85383
-2.63256
-1.72585
-1.06332
-0.565898
-0.176767
0.131283
0.358526
0.488148
0.534702
0.520975
0.482577
0.433508
0.381546
0.331523
0.285229
0.241925
0.20418
0.155057
0.193741
10.6743
9.58494
7.57542
4.04735
0.0794218
-3.74168
-5.90126
-6.26738
-5.36609
-4.19595
-3.1098
-2.20775
-1.50487
-0.968858
-0.556234
-0.231957
0.0215338
0.207339
0.320947
0.372489
0.378835
0.361992
0.333232
0.299381
0.264728
0.231226
0.198548
0.16873
0.127349
0.15089
7.90011
6.74683
4.72798
1.73742
-1.13213
-3.49758
-4.71462
-4.84499
-4.23312
-3.4208
-2.63464
-1.95416
-1.40127
-0.962243
-0.614144
-0.336638
-0.118266
0.0445255
0.151935
0.211875
0.236256
0.239211
0.229642
0.213352
0.194075
0.173772
0.152458
0.131566
0.0996598
0.109604
6.40883
5.16039
3.12951
0.637239
-1.48569
-3.04327
-3.79996
-3.86076
-3.45831
-2.89888
-2.33125
-1.81838
-1.38232
-1.02066
-0.723308
-0.47981
-0.283525
-0.131843
-0.0233261
0.047757
0.0896775
0.111842
0.121107
0.122289
0.118644
0.112103
0.103063
0.092332
0.0721385
0.0716148
5.82704
4.49933
2.53944
0.510203
-1.12524
-2.28893
-2.89694
-3.02883
-2.83583
-2.49824
-2.11887
-1.75048
-1.41616
-1.12253
-0.868798
-0.651895
-0.469805
-0.321955
-0.20761
-0.123267
-0.0635273
-0.0221486
0.0059877
0.024817
0.0371976
0.0450613
0.0492986
0.0501259
0.0443373
0.0381446
5.80029
4.48804
2.76504
1.14747
-0.203789
-1.24035
-1.89702
-2.20387
-2.24654
-2.1332
-1.93925
-1.71141
-1.47662
-1.24961
-1.03758
-0.844266
-0.672485
-0.524586
-0.401742
-0.302823
-0.224942
-0.164252
-0.117138
-0.0804577
-0.0516931
-0.0288699
-0.0104292
0.0033336
0.0148692
0.00952259
5.96409
4.87259
3.55122
2.26499
1.05823
0.00722742
-0.797138
-1.33377
-1.63297
-1.7548
-1.75405
-1.67306
-1.54323
-1.3866
-1.2183
-1.049
-0.886729
-0.737501
-0.605231
-0.491386
-0.395467
-0.31566
-0.249703
-0.195212
-0.149968
-0.111967
-0.0787736
-0.0510079
-0.0197376
-0.0159978
5.95383
5.33703
4.45622
3.43085
2.32892
1.25025
0.301381
-0.452959
-0.995536
-1.34607
-1.53836
-1.60815
-1.58849
-1.50723
-1.38659
-1.24398
-1.09285
-0.943421
-0.802907
-0.675582
-0.563272
-0.466023
-0.38277
-0.311913
-0.251439
-0.199433
-0.152566
-0.110984
-0.0604561
-0.0410106
5.8617
5.59977
5.03843
4.22256
3.24308
2.19776
1.19074
0.3095
-0.396789
-0.917489
-1.26619
-1.46819
-1.55301
-1.54964
-1.48375
-1.37685
-1.24639
-1.10608
-0.966138
-0.833451
-0.712014
-0.603592
-0.508329
-0.425488
-0.353477
-0.290633
-0.233278
-0.181017
-0.114591
-0.0759966
67.8019
70.4784
109.794
183.323
204.996
-150.507
-55.8027
-29.8157
-17.3794
-10.6963
-6.78052
-4.31218
-2.63947
-1.35007
-0.149812
1.12893
2.2164
1.73809
1.32177
1.08873
0.896958
0.735482
0.606382
0.501461
0.412931
0.347693
0.255513
0.397451
62.3098
62.7622
89.9051
158.509
167.787
24.8343
-137.421
-53.7687
-28.7689
-16.7222
-10.2293
-6.4425
-4.06712
-2.46412
-1.24252
-0.130747
1.02379
1.95623
1.60766
1.24866
1.03952
0.863469
0.71152
0.588318
0.487455
0.402443
0.337115
0.260829
0.360757
53.8909
52.4841
64.0118
108.817
90.6646
19.543
-94.4046
-91.492
-47.6726
-26.0969
-15.1934
-9.24112
-5.78876
-3.64621
-2.20419
-1.10189
-0.107224
0.891584
1.66738
1.42282
1.14178
0.965838
0.810133
0.67253
0.558981
0.464843
0.384892
0.322279
0.251648
0.342348
43.909
42.1452
42.8903
48.5759
54.5926
0.0638394
-57.2955
-58.6518
-37.4052
-21.963
-13.0755
-7.99601
-5.01375
-3.16881
-1.92606
-0.967473
-0.10567
0.728153
1.33064
1.21379
1.01174
0.872651
0.740602
0.620845
0.519729
0.434398
0.36099
0.302494
0.236134
0.319218
34.0171
32.6342
31.205
29.6847
15.1098
-2.46652
-26.2362
-30.6062
-22.7129
-14.889
-9.44066
-5.97566
-3.81985
-2.44184
-1.48393
-0.720508
-0.0354431
0.569838
0.949885
1.00748
0.870276
0.766949
0.659564
0.559305
0.472261
0.397216
0.331541
0.278177
0.216355
0.289511
25.2433
24.118
22.2985
18.507
8.74358
-5.31953
-14.9094
-16.0293
-12.3706
-8.51864
-5.65132
-3.67666
-2.3471
-1.43527
-0.766828
-0.230131
0.220058
0.561115
0.744981
0.78368
0.725634
0.65215
0.570261
0.490409
0.418308
0.354523
0.297487
0.250044
0.19328
0.25453
18.1701
17.1763
15.2983
11.2512
4.43532
-3.90811
-9.66757
-10.6534
-8.68114
-6.35111
-4.42599
-2.97428
-1.93187
-1.18794
-0.636007
-0.201582
0.14986
0.413081
0.555705
0.607831
0.585025
0.53643
0.477376
0.416649
0.359502
0.307494
0.25976
0.218903
0.1679
0.215733
12.9127
11.9966
10.1991
6.52659
1.63061
-3.53399
-6.77553
-7.41319
-6.32364
-4.86979
-3.54302
-2.46868
-1.65282
-1.04518
-0.584419
-0.223053
0.0620347
0.272475
0.397216
0.449817
0.447516
0.420617
0.382016
0.339187
0.296856
0.256964
0.219103
0.185498
0.141197
0.174869
9.29799
8.39048
6.64805
3.47497
-0.0714383
-3.33143
-5.20609
-5.5473
-4.85192
-3.87249
-2.92617
-2.12107
-1.48111
-0.984448
-0.59774
-0.291991
-0.0520285
0.125552
0.238396
0.295644
0.311201
0.30395
0.284209
0.258449
0.230826
0.203353
0.175955
0.150367
0.114026
0.133879
7.05302
6.09041
4.33539
1.63909
-0.965302
-3.07216
-4.19544
-4.36279
-3.88867
-3.20441
-2.516
-1.90582
-1.39991
-0.991602
-0.663518
-0.399528
-0.189861
-0.0312188
0.0771565
0.142255
0.17416
0.185147
0.183338
0.174186
0.161283
0.146599
0.130347
0.113713
0.0869819
0.0946726
5.87534
4.82044
3.03412
0.773366
-1.18323
-2.62691
-3.37252
-3.49324
-3.19505
-2.73137
-2.23895
-1.78161
-1.38421
-1.04869
-0.768736
-0.53669
-0.347303
-0.198502
-0.0889924
-0.0138637
0.0339181
0.0625669
0.0783012
0.0856068
0.0875905
0.0861571
0.0818495
0.0752854
0.0602497
0.0588998
5.45989
4.32163
2.57544
0.719472
-0.807486
-1.91812
-2.53982
-2.72886
-2.61506
-2.35118
-2.03194
-1.70953
-1.40881
-1.13897
-0.901739
-0.695978
-0.520802
-0.376248
-0.261991
-0.175237
-0.11148
-0.0653124
-0.0321431
-0.00834913
0.00876592
0.0210748
0.0295633
0.0343024
0.0334355
0.0277046
5.50475
4.36557
2.81323
1.32084
0.0486611
-0.95064
-1.61468
-1.95977
-2.05632
-1.99649
-1.84901
-1.65883
-1.45327
-1.24825
-1.05241
-0.870709
-0.706781
-0.563499
-0.442472
-0.343144
-0.26329
-0.199681
-0.149143
-0.108829
-0.0763974
-0.0499643
-0.0279297
-0.0107029
0.00523717
0.00136349
5.69036
4.73493
3.53382
2.33856
1.19951
0.190935
-0.60073
-1.1489
-1.47489
-1.62887
-1.65976
-1.60715
-1.50139
-1.36442
-1.21177
-1.05462
-0.901404
-0.758455
-0.630004
-0.517929
-0.422204
-0.341477
-0.273851
-0.217219
-0.169543
-0.128944
-0.0929992
-0.0624243
-0.0275974
-0.0218294
5.69753
5.1563
4.34928
3.39095
2.35012
1.32165
0.405639
-0.334152
-0.877308
-1.23816
-1.44589
-1.53311
-1.53078
-1.46556
-1.3591
-1.22856
-1.08733
-0.945624
-0.810761
-0.687227
-0.577146
-0.480891
-0.397694
-0.326198
-0.26458
-0.211063
-0.162393
-0.118808
-0.0658171
-0.0443525
5.62262
5.39026
4.87029
4.10228
3.17421
2.1792
1.21489
0.364312
-0.324175
-0.837929
-1.18766
-1.39595
-1.49012
-1.49744
-1.44243
-1.34584
-1.22463
-1.09223
-0.958689
-0.830899
-0.71298
-0.606888
-0.512979
-0.43071
-0.358656
-0.295283
-0.237024
-0.183574
-0.115879
-0.0760394
51.8843
50.7348
59.0676
85.2222
68.9802
10.3814
-65.4612
-62.669
-36.0574
-20.9233
-12.5099
-7.73128
-4.93088
-3.19274
-1.9902
-0.998163
-0.0399767
0.876177
1.47
1.40333
1.12354
0.953504
0.799462
0.665195
0.554126
0.461564
0.38192
0.322026
0.236074
0.363516
47.8681
46.7688
51.5449
73.8676
59.0318
9.39031
-57.4441
-55.8291
-33.768
-19.9387
-11.9939
-7.40483
-4.69266
-3.00302
-1.84032
-0.900396
-0.0173351
0.807745
1.34301
1.31377
1.06694
0.913194
0.770842
0.643921
0.53773
0.448654
0.372141
0.312138
0.24064
0.330073
41.5373
40.2038
41.2642
43.1162
46.1725
-0.790877
-41.0721
-43.4864
-28.8754
-17.7793
-10.8984
-6.77633
-4.29649
-2.73955
-1.66707
-0.807902
-0.0181357
0.700051
1.16218
1.17334
0.980033
0.849798
0.723319
0.6081
0.510168
0.427081
0.355224
0.297805
0.231646
0.312198
34.0158
32.6306
31.1979
29.6748
15.0989
-2.52383
-26.3419
-30.6813
-22.7548
-14.9086
-9.45116
-5.98345
-3.82736
-2.4494
-1.49163
-0.72675
-0.0380911
0.570125
0.950667
1.00781
0.870497
0.767188
0.65981
0.559546
0.472492
0.397429
0.33173
0.278334
0.21647
0.289598
26.588
25.4241
23.527
19.9179
9.49983
-3.06724
-16.0974
-20.0067
-16.446
-11.6383
-7.75325
-5.05745
-3.2891
-2.12196
-1.29895
-0.647862
-0.0810722
0.399985
0.698003
0.83914
0.747881
0.671134
0.584327
0.500814
0.426336
0.360815
0.302514
0.254221
0.197085
0.260801
19.9994
19.0444
17.2226
13.3055
5.7213
-4.51639
-10.7177
-11.7825
-9.62994
-6.9681
-4.78388
-3.18549
-2.06452
-1.27445
-0.688544
-0.222305
0.159453
0.445124
0.608948
0.654288
0.619456
0.565007
0.499949
0.434292
0.373419
0.318502
0.268569
0.226237
0.174473
0.227143
14.6424
13.8374
12.1856
8.5058
2.94021
-3.44248
-7.54293
-8.3939
-7.13157
-5.41286
-3.88145
-2.67514
-1.7789
-1.12188
-0.627549
-0.238513
0.0724208
0.303731
0.435896
0.495702
0.488715
0.45568
0.410818
0.362391
0.315419
0.271739
0.230903
0.195253
0.14964
0.190092
10.623
9.90526
8.40408
5.16397
1.04147
-3.08524
-5.616
-6.17537
-5.42098
-4.29232
-3.20372
-2.29113
-1.57814
-1.03362
-0.614613
-0.284197
-0.0237203
0.169477
0.289495
0.348476
0.358764
0.344939
0.318539
0.286576
0.253552
0.221519
0.190378
0.162093
0.123586
0.151367
7.85299
7.1488
5.70894
2.92961
-0.13194
-2.85738
-4.43664
-4.77792
-4.28326
-3.50503
-2.7151
-2.02144
-1.455
-1.00554
-0.649699
-0.365634
-0.140967
0.0277035
0.139797
0.20325
0.22914
0.232923
0.223764
0.20766
0.188547
0.168467
0.147582
0.127389
0.0971887
0.112839
6.15117
5.39664
3.93263
1.56598
-0.734284
-2.57991
-3.60099
-3.8177
-3.48894
-2.94678
-2.37138
-1.84426
-1.39517
-1.02457
-0.721271
-0.473881
-0.274766
-0.121151
-0.0119598
0.0586897
0.0990071
0.119211
0.12648
0.125809
0.120583
0.112752
0.102717
0.0914513
0.0710697
0.0763242
5.2962
4.4524
2.93736
0.938816
-0.824199
-2.14529
-2.87521
-3.06385
-2.87974
-2.52504
-2.12107
-1.73041
-1.38044
-1.07751
-0.819544
-0.602056
-0.421555
-0.276739
-0.166644
-0.0873361
-0.0331158
0.00288277
0.0261058
0.040619
0.0493219
0.0540644
0.0555296
0.054152
0.0454543
0.0433706
5.04936
4.11937
2.61365
0.956561
-0.44205
-1.49026
-2.12231
-2.3734
-2.3472
-2.16785
-1.91956
-1.65254
-1.39305
-1.15287
-0.936527
-0.745041
-0.578926
-0.439021
-0.325557
-0.23658
-0.168581
-0.117109
-0.0782115
-0.0486538
-0.0259533
-0.00832698
0.00530261
0.0148446
0.0200072
0.0150335
5.16316
4.21598
2.8584
1.51176
0.334454
-0.617927
-1.28497
-1.66981
-1.82546
-1.82666
-1.73367
-1.58858
-1.41865
-1.24083
-1.06527
-0.89831
-0.744528
-0.607463
-0.489268
-0.39006
-0.308373
-0.241689
-0.187366
-0.142918
-0.106224
-0.0755283
-0.0491911
-0.0277711
-0.00647344
-0.0084665
5.36692
4.56354
3.50107
2.4129
1.35535
0.39976
-0.372557
-0.929998
-1.28404
-1.47391
-1.54138
-1.52239
-1.44565
-1.33272
-1.19944
-1.05748
-0.915721
-0.780878
-0.657558
-0.548117
-0.453077
-0.371621
-0.302288
-0.243306
-0.192862
-0.149236
-0.110032
-0.0760988
-0.0369917
-0.0287784
5.39153
4.935
4.21349
3.33452
2.36705
1.3998
0.525344
-0.194313
-0.735547
-1.10676
-1.33178
-1.43927
-1.45757
-1.41174
-1.32261
-1.20694
-1.07799
-0.945964
-0.818282
-0.699672
-0.592602
-0.497824
-0.414921
-0.342833
-0.279964
-0.224713
-0.173924
-0.12797
-0.0720517
-0.0482361
5.33533
5.13644
4.66474
3.95379
3.08752
2.15334
1.24117
0.428665
-0.237069
-0.741296
-1.09142
-1.30682
-1.41204
-1.43225
-1.39049
-1.30655
-1.19675
-1.07413
-0.948555
-0.826903
-0.71343
-0.610318
-0.518175
-0.43669
-0.364643
-0.300663
-0.241321
-0.186446
-0.117247
-0.0759649
37.5879
36.6821
36.4881
34.3327
19.8721
-3.07855
-29.1703
-27.9497
-19.1971
-12.0053
-7.55325
-4.7794
-3.01775
-1.85459
-1.0095
-0.310252
0.31022
0.800456
1.03216
1.04901
0.928462
0.812249
0.695959
0.588966
0.496292
0.416777
0.34672
0.292732
0.213561
0.323149
34.8617
33.8645
32.9691
29.1407
16.3764
-2.47064
-25.8487
-25.0904
-17.6478
-11.2487
-7.12198
-4.51276
-2.84122
-1.73164
-0.926011
-0.265444
0.311528
0.759474
0.975349
0.993387
0.887212
0.78035
0.671557
0.570024
0.481345
0.404813
0.33755
0.283504
0.217169
0.293508
30.4909
29.3619
28.0811
24.8845
11.8508
-6.51772
-19.964
-20.9406
-15.2307
-10.0001
-6.44721
-4.1217
-2.60199
-1.58135
-0.839207
-0.237989
0.27698
0.671834
0.871582
0.900913
0.817704
0.725974
0.629052
0.536865
0.455233
0.384061
0.321123
0.269604
0.20833
0.276444
25.2391
24.1116
22.2881
18.4917
8.72314
-5.37676
-14.9695
-16.0733
-12.3927
-8.5294
-5.65745
-3.68107
-2.351
-1.43921
-0.770515
-0.23299
0.218508
0.560718
0.745207
0.78398
0.72603
0.652631
0.570772
0.490918
0.418795
0.354972
0.297884
0.250374
0.193518
0.254711
19.997
19.0412
17.218
13.2987
5.71175
-4.53721
-10.7388
-11.7992
-9.63976
-6.97373
-4.78739
-3.18793
-2.06654
-1.27634
-0.690274
-0.223725
0.158518
0.44471
0.608803
0.654423
0.619663
0.565259
0.500219
0.434562
0.373677
0.31874
0.268778
0.226411
0.174598
0.227238
15.2961
14.5314
12.9282
9.24678
3.35412
-3.67103
-7.82017
-8.65637
-7.33015
-5.51439
-3.9153
-2.67706
-1.76838
-1.10687
-0.610271
-0.218934
0.0941792
0.32586
0.460405
0.512556
0.502216
0.467493
0.420499
0.370165
0.321644
0.276702
0.234878
0.198565
0.152559
0.195372
11.4332
10.8179
9.45183
6.19683
1.72303
-3.0011
-5.87506
-6.53893
-5.73247
-4.5024
-3.33025
-2.36249
-1.61551
-1.05015
-0.617657
-0.276867
-0.00738732
0.192479
0.315276
0.373653
0.381519
0.364805
0.335147
0.300123
0.26446
0.230213
0.19729
0.167783
0.128425
0.160575
8.51485
7.98597
6.7812
3.98543
0.590082
-2.63998
-4.58509
-5.07063
-4.56796
-3.72246
-2.86096
-2.11018
-1.5033
-1.02639
-0.652086
-0.35431
-0.118756
0.0577371
0.173308
0.236761
0.259618
0.259531
0.246252
0.226198
0.203558
0.18044
0.15701
0.134978
0.103211
0.124518
6.50824
5.99574
4.84439
2.46149
-0.126174
-2.37036
-3.68917
-4.0356
-3.7139
-3.12509
-2.49178
-1.91406
-1.42644
-1.02906
-0.707517
-0.447208
-0.238799
-0.0792905
0.0318464
0.101128
0.137501
0.152878
0.155103
0.149578
0.139944
0.128223
0.114786
0.100887
0.0778125
0.0889818
5.30116
4.74426
3.55913
1.52471
-0.468275
-2.06669
-2.99182
-3.25839
-3.06614
-2.66553
-2.20809
-1.77026
-1.38424
-1.05638
-0.781661
-0.553405
-0.366402
-0.218684
-0.109211
-0.0333378
0.0154533
0.0452804
0.0622548
0.0708235
0.0740975
0.0739664
0.0709949
0.0659336
0.0528789
0.0556712
4.73818
4.09774
2.84844
1.11709
-0.444508
-1.64167
-2.35245
-2.60698
-2.53451
-2.29156
-1.98188
-1.66424
-1.36765
-1.10224
-0.870082
-0.669896
-0.50017
-0.360576
-0.250688
-0.16766
-0.107096
-0.0635357
-0.0323952
-0.0101047
0.00597243
0.0175934
0.0255657
0.0301162
0.0286739
0.0260229
4.63907
3.91259
2.6481
1.1971
-0.0642687
-1.04367
-1.67988
-1.98971
-2.05012
-1.95809
-1.7857
-1.57954
-1.36646
-1.16042
-0.968548
-0.794077
-0.639044
-0.505225
-0.393541
-0.302956
-0.230989
-0.174204
-0.129357
-0.0936623
-0.0648999
-0.0414112
-0.0220396
-0.00707181
0.0049233
0.000996561
4.80723
4.05002
2.8917
1.69882
0.625148
-0.272612
-0.935857
-1.35626
-1.56955
-1.63327
-1.59816
-1.50229
-1.37213
-1.22528
-1.07321
-0.92357
-0.781964
-0.652652
-0.538409
-0.440088
-0.357017
-0.287444
-0.229313
-0.180549
-0.139295
-0.103953
-0.0728582
-0.0467579
-0.0194653
-0.0192393
5.02018
4.36864
3.44996
2.47629
1.50831
0.613453
-0.132604
-0.694361
-1.07387
-1.29945
-1.40509
-1.42228
-1.3775
-1.29157
-1.18035
-1.05591
-0.92755
-0.802371
-0.685388
-0.579471
-0.485721
-0.403894
-0.333012
-0.271674
-0.218331
-0.171454
-0.128683
-0.0910499
-0.0472254
-0.0362622
5.05866
4.68712
4.05504
3.26148
2.37442
1.47559
0.649388
-0.0447564
-0.580479
-0.960388
-1.20263
-1.33148
-1.37217
-1.34781
-1.27811
-1.17932
-1.06443
-0.943608
-0.824348
-0.711632
-0.608288
-0.515473
-0.433156
-0.360604
-0.296482
-0.239392
-0.186299
-0.137749
-0.0786557
-0.0522641
5.02034
4.85529
4.43459
3.78549
2.98709
2.12016
1.26637
0.497316
-0.14161
-0.633776
-0.983189
-1.20571
-1.32282
-1.35726
-1.33033
-1.26064
-1.16379
-1.05233
-0.935892
-0.821333
-0.713045
-0.613448
-0.523424
-0.442919
-0.370946
-0.30632
-0.245781
-0.189318
-0.118514
-0.0756493
26.2063
25.0566
23.2328
19.3916
10.7712
-5.99262
-14.9173
-17.1644
-12.5126
-8.50217
-5.68854
-3.70798
-2.35962
-1.43307
-0.754336
-0.210745
0.246874
0.602052
0.781543
0.818204
0.75901
0.679268
0.593185
0.509936
0.434729
0.368323
0.308253
0.260596
0.188915
0.277895
24.4506
23.2926
21.2843
17.0142
8.83905
-5.7633
-13.5591
-15.5829
-11.6795
-8.02459
-5.38807
-3.51944
-2.2359
-1.34924
-0.700338
-0.18457
0.244454
0.57237
0.73848
0.776686
0.726076
0.65244
0.571646
0.492696
0.420864
0.357079
0.29955
0.251972
0.191382
0.252479
21.6255
20.5185
18.5826
14.2486
6.41701
-4.48905
-11.96
-13.2091
-10.2882
-7.26823
-4.95108
-3.26679
-2.08936
-1.26586
-0.660895
-0.183269
0.20856
0.504992
0.659462
0.704455
0.666667
0.604066
0.532671
0.46147
0.395804
0.336909
0.283466
0.23844
0.182673
0.236521
18.1628
17.1673
15.2861
11.2344
4.41345
-3.95331
-9.7107
-10.6872
-8.69969
-6.36068
-4.43113
-2.97737
-1.93436
-1.19035
-0.638311
-0.203519
0.148681
0.412736
0.555893
0.608318
0.585672
0.537184
0.47817
0.417437
0.360254
0.308187
0.260372
0.219412
0.168265
0.216013
14.6373
13.8314
12.1779
8.49579
2.92736
-3.46463
-7.56406
-8.4109
-7.14178
-5.41856
-3.8847
-2.67713
-1.78045
-1.12331
-0.628879
-0.239614
0.071758
0.303531
0.436131
0.496049
0.48917
0.456206
0.411372
0.362941
0.315944
0.272223
0.231329
0.195607
0.149893
0.190287
11.4305
10.815
9.44841
6.19256
1.71781
-3.00893
-5.88258
-6.54512
-5.73643
-4.5047
-3.33157
-2.36327
-1.61606
-1.05061
-0.618057
-0.277176
-0.00754493
0.192491
0.315404
0.373847
0.381758
0.365074
0.335428
0.300403
0.264727
0.230459
0.197507
0.167963
0.128554
0.160675
8.76993
8.30251
7.18331
4.38908
0.872565
-2.55484
-4.63897
-5.18233
-4.67697
-3.80497
-2.91648
-2.14478
-1.52334
-1.03659
-0.655691
-0.352973
-0.113302
0.0663484
0.183571
0.247162
0.269363
0.268189
0.253602
0.232269
0.208485
0.184377
0.160125
0.137511
0.10528
0.128611
6.75252
6.37296
5.40771
3.03789
0.28806
-2.20458
-3.71624
-4.15329
-3.84427
-3.23246
-2.56784
-1.9622
-1.4531
-1.04043
-0.708334
-0.440313
-0.225958
-0.0622497
0.0508573
0.120196
0.155123
0.168426
0.168346
0.160561
0.148859
0.135317
0.120313
0.105254
0.081098
0.0956924
5.377
5.02043
4.1043
2.08953
-0.0662418
-1.89761
-3.00453
-3.36039
-3.18491
-2.76516
-2.27757
-1.81097
-1.40166
-1.05716
-0.770862
-0.534527
-0.341934
-0.19082
-0.0803138
-0.0053688
0.0409841
0.0677267
0.0814189
0.0867866
0.0871063
0.0843221
0.0789735
0.0720295
0.0569159
0.0635928
4.57831
4.18738
3.2384
1.51268
-0.191484
-1.56642
-2.40632
-2.71786
-2.64704
-2.37871
-2.03607
-1.6878
-1.36712
-1.08466
-0.840904
-0.63344
-0.459579
-0.318386
-0.209233
-0.128766
-0.0720471
-0.0328649
-0.00618232
0.0118377
0.0239761
0.0320138
0.0366505
0.0383714
0.0334031
0.0338922
4.25128
3.7868
2.77255
1.29309
-0.0734193
-1.15061
-1.83859
-2.15056
-2.17973
-2.04353
-1.82748
-1.58465
-1.34434
-1.11956
-0.915979
-0.735267
-0.577941
-0.444788
-0.336113
-0.250196
-0.183908
-0.133133
-0.094177
-0.0640151
-0.0403211
-0.0214706
-0.00655645
0.0044001
0.0108599
0.00790643
4.26395
3.71788
2.67476
1.42202
0.297618
-0.609543
-1.24207
-1.6017
-1.74105
-1.73268
-1.63586
-1.49222
-1.32812
-1.15904
-0.994224
-0.838936
-0.696737
-0.570403
-0.461635
-0.370349
-0.295081
-0.233402
-0.182802
-0.140987
-0.106037
-0.0764519
-0.0510172
-0.0302552
-0.0109264
-0.0135019
4.4641
3.87845
2.90805
1.86624
0.898448
0.0605565
-0.591094
-1.03909
-1.30369
-1.42658
-1.44855
-1.40283
-1.31428
-1.20058
-1.07413
-0.943733
-0.815933
-0.695735
-0.586568
-0.490036
-0.406261
-0.334262
-0.272591
-0.219618
-0.173779
-0.133663
-0.0975987
-0.0665586
-0.0329364
-0.0302128
4.67391
4.16124
3.38061
2.52118
1.64541
0.815938
0.102363
-0.457345
-0.857099
-1.11516
-1.25764
-1.3111
-1.29929
-1.2418
-1.15424
-1.04887
-0.93531
-0.821016
-0.711407
-0.609862
-0.51806
-0.436337
-0.364213
-0.300687