/*--------------------------------*- C++ -*----------------------------------*\
  =========                 |
  \\      /  F ield         | OpenFOAM: The Open Source CFD Toolbox
   \\    /   O peration     | Website:  https://openfoam.org
    \\  /    A nd           | Version:  7
     \\/     M anipulation  |
\*---------------------------------------------------------------------------*/
FoamFile
{
    version     2.0;
    format      ascii;
    class       surfaceScalarField;
    location    "200";
    object      phi;
}
// * * * * * * * * * * * * * * * * * * * * * * * * * * * * * * * * * * * * * //

dimensions      [0 3 -1 0 0 0 0];

internalField   nonuniform List<scalar> 
81175
(
525.052
8.76167
8.72233
113.178
32.2488
32.1306
115.166
115.322
117.007
93.5135
9.84421
9.81994
-14.6337
3.03784
3.4596
1.99887
2.18289
1.71126
2.24321
2.29982
-0.64763
-0.764431
-0.88777
-5.91247
-1.12117
-1.18826
8.22189
-14.2342
15.9074
-0.82711
-0.846102
-20.0611
21.2
-0.566601
-0.572278
-24.0501
24.8455
-0.396662
-0.398702
-26.8795
27.4598
-0.289648
-0.290574
-28.9633
29.3937
-0.214952
-0.215473
-30.4928
30.7977
-0.152321
-0.152646
-31.5371
31.7275
-0.0950884
-0.0952979
-32.1324
129.161
-0.379735
-0.38088
-32.0999
-32.0999
-32.0682
522.67
-2.02462
-2.03259
-129.76
-129.651
-129.651
-129.55
525.854
-1.58802
-1.59539
528.429
-1.28432
-1.29106
530.556
-1.06039
-1.06655
532.338
-0.888213
-0.893841
533.848
-0.752114
-0.757273
535.138
-0.642512
-0.647254
536.249
-0.553308
-0.55767
537.207
-0.477421
-0.481433
538.057
-0.423123
-0.42681
-0.345707
-0.349137
529.707
14.4457
7.60053
118.565
50.6969
27.1113
122.252
120.049
123.282
-17.9322
104.56
23.6209
8.3158
-11.0156
-19.657
13.0941
2.57155
3.89388
3.58287
3.63135
3.89887
-2.42551
3.82955
-5.54844
-1.03813
5.18248
-12.1862
4.24168
-1.03937
-5.00128
13.9851
2.90948
-18.2857
19.4483
-3.36845
-0.703615
2.00376
-22.3662
23.1862
-2.34005
-0.483701
1.43207
-25.2984
25.9059
-1.69354
-0.346063
1.06556
-27.5001
27.966
-1.27369
-0.257845
0.804035
-29.1992
29.56
-0.969484
-0.195369
0.581029
-30.5023
30.7708
-0.706693
-0.142794
0.374847
-31.4419
31.6221
-0.461635
-0.0934089
-32.0389
0.813954
128.923
-1.24404
-0.389827
-32.04
-32.0107
-32.0132
522.453
-4.18869
-2.05962
-129.589
-129.61
-129.498
-129.532
525.71
-3.22929
-1.61475
528.316
-2.58591
-1.30416
530.454
-2.12268
-1.07615
532.241
-1.773
-0.901408
533.752
-1.49953
-0.763539
535.042
-1.28044
-0.652693
536.154
-1.1019
-0.562532
537.115
-0.952722
-0.485906
537.956
-0.832636
-0.431882
-0.711858
-0.34634
535.6
16.5576
6.02854
126.054
54.5404
20.0257
129.139
126.846
129.692
-26.3337
119.546
26.9705
5.87108
-14.8848
-27.0647
25.3577
14.7921
1.79968
-0.17512
0.879365
-0.765084
0.0607098
-19.628
8.96946
-8.76502
-1.02616
20.4497
5.772
-22.2405
-0.65707
22.7717
-5.64608
3.9678
-24.2669
24.7319
-3.96959
-0.463195
2.89274
-26.0308
26.4323
-2.95234
-0.341914
2.19515
-27.549
27.8935
-2.27864
-0.261012
1.71582
-28.8498
29.1441
-1.80533
-0.20474
1.34693
-29.9564
30.2038
-1.43276
-0.161555
1.0116
-30.8743
31.0731
-1.08765
-0.12273
0.687522
-31.5914
31.7375
-0.749443
-0.0841625
-32.0958
1.64139
129.113
-1.99364
-0.374612
-32.1184
-32.0739
-32.0982
523.078
-6.12064
-2.00753
-129.745
-129.881
-129.681
-129.831
526.192
-4.75856
-1.58454
528.706
-3.81671
-1.28301
530.774
-3.13117
-1.05957
532.503
-2.61337
-0.887954
533.966
-2.20958
-0.752692
535.216
-1.88698
-0.644104
536.294
-1.62424
-0.555838
537.228
-1.40564
-0.480986
538.049
-1.22486
-0.427916
-1.05654
-0.343085
540.837
16.2579
4.5873
530.968
50.1812
14.2284
129.678
97.4363
28.5585
-26.475
-35.9821
-25.6025
-34.5316
133.612
130.441
133.833
-53.7895
131.698
44.4032
7.36651
-23.4128
-34.0398
36.1832
19.448
1.82137
4.66331
-4.72885
0.0655494
12.1337
-29.0933
28.5141
-10.5696
-0.984914
7.07044
-27.8757
-0.53564
27.8097
-6.46883
4.88604
-27.8714
27.9528
-4.59416
-0.373235
3.68052
-28.3008
28.4407
-3.53483
-0.285662
2.89895
-28.8959
29.0556
-2.8311
-0.227509
2.34734
-29.5458
29.7097
-2.32555
-0.18562
1.93287
-30.1963
30.3545
-1.93742
-0.153651
1.58378
-30.8141
30.9603
-1.60346
-0.126506
1.24216
-31.3762
31.5051
-1.27119
-0.0998971
0.892623
-31.8611
31.9669
-0.926582
-0.0718986
-32.2474
2.28935
129.622
-2.53537
-0.346519
-32.2811
-32.2328
-32.2683
524.509
-7.65073
-1.89546
-130.178
-130.393
-130.142
-130.371
527.301
-6.03873
-1.51113
529.597
-4.88318
-1.22992
531.507
-4.02192
-1.01854
533.112
-3.36358
-0.855144
534.477
-2.84777
-0.72623
535.648
-2.4351
-0.622753
536.661
-2.09872
-0.53866
537.542
-1.81903
-0.467413
538.318
-1.58508
-0.416568
-1.37075
-0.335646
544.53
14.5813
3.37071
541.904
42.9449
9.86301
136.192
75.2259
17.6297
136.955
136.318
137.02
-36.3556
138.396
30.3634
3.78812
-49.1252
149.501
37.6505
4.85871
-142.885
-10.8926
-39.6267
40.9113
0.582538
9.02538
-0.370693
-43.0221
42.4333
-0.0822111
1.04174
6.93997
-37.9187
141.314
-16.1846
-2.4294
7.23776
6.79911
7.13721
-37.9848
-37.4589
-37.4517
6.4228
-134.096
129.559
-17.848
-2.42802
6.34357
6.05975
5.98642
4.7796
-126.768
125.22
-15.033
-1.92298
4.51439
4.73559
4.47517
3.71568
-124.319
123.892
-12.5109
-1.55021
3.55505
3.68787
3.52967
3.03265
-123.734
123.781
-10.6233
-1.29267
2.92181
3.01188
2.90219
2.54287
-123.976
124.277
-9.17303
-1.10324
2.46235
2.52512
2.44511
2.16974
-124.661
125.101
-8.00497
-0.955129
2.10633
2.15352
2.09042
1.86426
-125.589
126.098
-6.99833
-0.829672
1.80978
1.84937
1.7954
1.58483
-126.633
127.168
-6.03314
-0.709922
1.53105
1.5725
1.51974
1.29467
-127.717
128.254
-5.00314
-0.582051
1.23634
1.28696
1.23013
0.98348
-128.8
129.322
-3.89309
-0.444087
0.924906
0.981613
0.924415
2.72452
-129.843
130.322
-2.88498
-0.318671
526.596
-8.70894
-1.74212
-130.806
-131.092
-130.799
-131.099
528.956
-6.9958
-1.40303
530.938
-5.71577
-1.14963
532.613
-4.74024
-0.956535
534.038
-3.98196
-0.805986
535.259
-3.38206
-0.68675
536.314
-2.89971
-0.590857
537.234
-2.50538
-0.512861
538.039
-2.17701
-0.446775
538.753
-1.90046
-0.399356
-1.64579
-0.324095
546.761
12.2704
2.40303
547.612
35.2708
6.82264
553.616
57.9496
11.2726
568.587
76.182
15.0164
-25.5201
-28.2828
-24.8445
-27.5222
148.062
78.419
15.6066
-29.7799
-27.8393
-28.8904
-27.0479
146.185
147.837
146.035
-22.452
150.4
18.3152
1.79888
-4.95102
-150.855
149.226
6.0844
0.49558
556.611
-11.7705
-3.8136
9.06803
11.2218
8.47297
10.6388
-145.899
-144.489
-145.695
-144.345
538.625
-24.9248
-5.93119
12.639
12.2401
12.1297
11.8324
528.037
-29.1
-6.16692
11.9827
11.2566
11.6373
10.9785
522.345
-29.2942
-5.83476
10.6299
10.0075
10.3835
9.79997
519.575
-27.9935
-5.36796
9.37249
8.8735
9.18083
8.7045
518.556
-26.2041
-4.90105
8.31007
7.90322
8.15182
7.7583
518.653
-24.2664
-4.45909
7.39655
7.04942
7.25967
6.9229
519.47
-22.1934
-4.02388
6.57111
6.24216
6.45224
6.13442
520.805
-19.8803
-3.56074
5.7463
5.39754
5.64851
5.31432
522.576
-17.2235
-3.04311
4.84623
4.46217
4.77689
4.41035
524.721
-14.3188
-2.48622
3.86767
3.48995
3.83221
3.46983
527.012
-11.5688
-1.96914
2.95428
2.67592
2.94575
2.67071
529.168
-9.30135
-1.56361
531.034
-7.59132
-1.2705
532.645
-6.27626
-1.04948
534.033
-5.2496
-0.878911
535.233
-4.43713
-0.744659
536.275
-3.78682
-0.637631
537.187
-3.26003
-0.551183
537.989
-2.82732
-0.480718
538.699
-2.46597
-0.420965
539.337
-2.16002
-0.377903
-1.87415
-0.309577
547.908
9.85834
1.67479
550.327
28.1674
4.68398
555.899
44.9521
7.42552
565.569
57.0791
9.43332
576.175
58.2309
9.58179
579.553
43.8891
6.78692
-15.4276
-11.8061
-15.1588
-11.6612
573.095
21.7868
2.9063
-6.38486
-2.67918
-6.37736
-2.79384
560.55
1.40021
-0.626424
549.092
-10.9972
-2.46909
540.616
-17.3737
-3.25112
534.96
-20.1508
-3.48751
531.388
-20.9582
-3.46329
529.267
-20.7563
-3.32679
528.133
-19.9952
-3.13702
527.698
-18.8479
-2.91104
527.808
-17.346
-2.64365
528.398
-15.4846
-2.32921
529.421
-13.3614
-1.98011
530.725
-11.2339
-1.63914
532.114
-9.34251
-1.34798
533.431
-7.79023
-1.11774
534.627
-6.53649
-0.935725
535.695
-5.52624
-0.791389
536.642
-4.70869
-0.675805
537.482
-4.04445
-0.582593
538.23
-3.50094
-0.506744
538.899
-3.05162
-0.444687
539.5
-2.67505
-0.391999
540.049
-2.35491
-0.3539
-2.04957
-0.293409
548.347
7.63758
1.15163
551.237
22.0641
3.21405
556.195
34.9892
5.00427
563.124
43.9431
6.20752
569.878
45.1755
6.30138
572.411
36.5043
4.85156
569.263
22.2455
2.68908
562.233
7.84963
0.580191
554.69
-2.64797
-0.805755
548.262
-9.33296
-1.61247
543.331
-13.1947
-2.02554
539.76
-15.1864
-2.2005
537.25
-16.0073
-2.23958
535.533
-16.0792
-2.19857
534.426
-15.6386
-2.10269
533.816
-14.7756
-1.96011
533.652
-13.5461
-1.77508
533.897
-12.047
-1.55897
534.456
-10.4562
-1.3368
535.197
-8.94914
-1.13391
535.994
-7.62643
-0.961373
536.78
-6.50454
-0.818138
537.523
-5.56795
-0.700651
538.208
-4.79011
-0.604325
538.836
-4.14665
-0.525405
539.409
-3.61365
-0.46053
539.935
-3.16967
-0.40718
540.418
-2.79625
-0.361845
540.87
-2.47829
-0.328991
-2.167
-0.276855
548.396
5.73012
0.785939
551.239
17.0042
2.2166
555.521
27.2597
3.44714
560.84
34.3693
4.25463
565.743
35.9065
4.36662
567.981
30.6796
3.58651
566.698
21.195
2.33296
562.709
10.8274
1.01143
557.782
2.27563
0.00308304
553.065
-3.92687
-0.688581
549.043
-8.05165
-1.12119
545.801
-10.5767
-1.36804
543.284
-11.9988
-1.49168
541.359
-12.6206
-1.53363
539.921
-12.6831
-1.51678
538.9
-12.3018
-1.45341
538.265
-11.5589
-1.35145
537.986
-10.5471
-1.22103
538.006
-9.39808
-1.07835
538.239
-8.2426
-0.939658
538.595
-7.16862
-0.814327
539.012
-6.21533
-0.705348
539.447
-5.39081
-0.612681
539.879
-4.6872
-0.534628
540.295
-4.0936
-0.469466
540.692
-3.5952
-0.415239
541.07
-3.1768
-0.370376
541.43
-2.82411
-0.332282
541.781
-2.52492
-0.304658
-2.22242
-0.261055
548.246
4.14802
0.536609
550.817
12.8865
1.54653
554.489
21.1554
2.43288
558.808
27.0243
3.02548
562.759
28.7929
3.16315
564.962
25.7302
2.74596
564.828
19.3382
1.99117
562.713
11.8088
1.13346
559.588
4.99799
0.402279
556.223
-0.402814
-0.158916
553.052
-4.3271
-0.554022
550.295
-7.00541
-0.813746
547.95
-8.68125
-0.973062
546.018
-9.62993
-1.0587
544.449
-10.0246
-1.08914
543.211
-9.98736
-1.07615
542.287
-9.60655
-1.02821
541.661
-8.96781
-0.954146
541.301
-8.17262
-0.865246
541.152
-7.32089
-0.772692
541.153
-6.48585
-0.684021
541.254
-5.71247
-0.603271
541.415
-5.02042
-0.532008
541.612
-4.41374
-0.47022
541.828
-3.89159
-0.417552
542.053
-3.44713
-0.373118
542.284
-3.07143
-0.336116
542.519
-2.75497
-0.304821
542.767
-2.49043
-0.282155
-2.2124
-0.246977
547.992
2.88778
0.369535
550.21
9.56748
1.10106
553.366
16.2294
1.76978
557.047
21.1079
2.23512
560.51
22.9414
2.3892
562.808
21.2566
2.17504
563.452
16.9852
1.7088
562.587
11.5381
1.13555
560.734
6.2517
0.600165
558.424
1.75422
0.152513
556.027
-1.73928
-0.19088
553.732
-4.27134
-0.439332
551.658
-5.99842
-0.608983
549.828
-7.08309
-0.716408
548.245
-7.66667
-0.774967
546.908
-7.85555
-0.794329
545.815
-7.73201
-0.782162
544.965
-7.37132
-0.745913
544.339
-6.85321
-0.693969
543.908
-6.25479
-0.634509
543.631
-5.63524
-0.573547
543.47
-5.03726
-0.515149
543.396
-4.48436
-0.461519
543.383
-3.98683
-0.413547
543.413
-3.55018
-0.371715
543.475
-3.17358
-0.335894
543.563
-2.85376
-0.305855
543.675
-2.58593
-0.280683
543.817
-2.37024
-0.262492
-2.13315
-0.235407
547.704
1.90503
0.258231
549.563
6.8999
0.808615
552.308
12.1475
1.33743
555.587
16.1046
1.72453
558.805
17.8361
1.88685
561.233
17.0407
1.78846
562.463
14.259
1.49589
562.479
10.4197
1.10224
561.579
6.44846
0.703037
560.1
2.88862
0.345047
558.34
-0.0298771
0.0499028
556.508
-2.25932
-0.179208
554.719
-3.8619
-0.348148
553.042
-4.9397
-0.466064
551.511
-5.59362
-0.541748
550.146
-5.90841
-0.582539
548.962
-5.9537
-0.594813
547.968
-5.79195
-0.58473
547.159
-5.48519
-0.558789
546.519
-5.0923
-0.523288
546.027
-4.65967
-0.483133
545.656
-4.22388
-0.442113
545.381
-3.80762
-0.402631
545.184
-3.42333
-0.366029
545.047
-3.07961
-0.333283
544.958
-2.77956
-0.304782
544.909
-2.5245
-0.280678
544.898
-2.31369
-0.260817
544.932
-2.15801
-0.246451
-1.9791
-0.226978
547.406
1.15539
0.18247
548.952
4.73618
0.618222
551.4
8.63871
1.06018
554.447
11.6588
1.39902
557.559
13.1587
1.56569
560.149
12.9138
1.53648
561.831
11.2253
1.35202
562.504
8.67194
1.0745
562.319
5.86442
0.769355
561.511
3.21801
0.477733
560.305
0.95401
0.222145
558.884
-0.849063
0.0115968
557.377
-2.20178
-0.153571
555.873
-3.15807
-0.277218
554.427
-3.78319
-0.36453
553.077
-4.13838
-0.42072
551.852
-4.27709
-0.450823
550.767
-4.24747
-0.459856
549.83
-4.09564
-0.453021
549.038
-3.86482
-0.435394
548.379
-3.58947
-0.411115
547.837
-3.29831
-0.383664
547.396
-3.01042
-0.355476
547.038
-2.73755
-0.328127
546.75
-2.48883
-0.302879
546.52
-2.26921
-0.280479
546.34
-2.08339
-0.2613
546.206
-1.93312
-0.245921
546.126
-1.84321
-0.234597
-1.73978
-0.222204
547.163
0.591923
0.125922
548.461
2.94114
0.497041
550.7
5.50776
0.891516
553.598
7.55897
1.20259
556.681
8.70128
1.37441
559.435
8.76833
1.39072
561.494
7.88983
1.27712
562.704
6.38494
1.07639
563.112
4.62034
0.836236
562.864
2.87458
0.591554
562.135
1.31846
0.36466
561.087
0.0315795
0.167515
559.851
-0.970529
0.00451803
558.526
-1.70879
-0.124497
557.184
-2.21885
-0.221961
555.876
-2.53882
-0.291259
554.639
-2.70437
-0.336186
553.501
-2.74826
-0.360787
552.476
-2.70146
-0.369332
551.57
-2.5927
-0.366082
550.78
-2.44512
-0.354669
550.098
-2.27857
-0.338332
549.514
-2.10685
-0.3195
549.016
-1.93915
-0.299898
548.591
-1.78304
-0.280966
548.229
-1.64348
-0.263728
547.921
-1.52695
-0.248638
547.66
-1.43516
-0.237007
547.451
-1.40656
-0.227803
-1.39154
-0.221888
547.012
0.198164
0.0726741
548.13
1.39132
0.43143
550.206
2.62577
0.805845
552.984
3.6755
1.10582
556.061
4.33395
1.28972
558.988
4.49807
1.34366
561.4
4.19578
1.28193
563.096
3.55322
1.13498
564.044
2.73393
0.939199
564.317
1.87599
0.725294
564.044
1.0753
0.515544
563.366
0.385637
0.324026
562.411
-0.172906
0.158147
561.283
-0.601719
0.0205404
560.066
-0.913134
-0.0890674
558.824
-1.12383
-0.172536
557.603
-1.2511
-0.2326
556.439
-1.31155
-0.272497
555.354
-1.32097
-0.295796
554.362
-1.29403
-0.30619
553.466
-1.24263
-0.306964
552.666
-1.17716
-0.301193
551.956
-1.10504
-0.291305
551.327
-1.03153
-0.279161
550.771
-0.961067
-0.266316
550.279
-0.89683
-0.25404
549.839
-0.844454
-0.242817
549.443
-0.804186
-0.234455
549.077
-0.814067
-0.226822
-0.876387
-0.226748
546.948
0.0326594
547.938
0.401475
549.786
0.777793
552.37
1.09073
555.396
1.30826
558.48
1.41338
561.267
1.40939
563.504
1.31551
565.079
1.15952
565.986
0.968933
566.294
0.766687
566.111
0.569661
565.549
0.38882
564.717
0.230201
563.708
0.0963183
562.597
-0.0126623
561.444
-0.0980955
560.294
-0.162286
559.182
-0.208124
558.126
-0.238825
557.141
-0.257447
556.231
-0.266983
555.396
-0.26996
554.633
-0.268435
553.936
-0.264205
553.298
-0.258815
552.706
-0.252945
552.151
-0.248705
551.58
-0.24356
-0.245623
529.758
7.60503
14.3672
118.677
27.1271
50.4911
120.066
122.266
123.262
-17.8077
104.75
8.28436
23.4497
-11.1978
-19.8973
2.68587
12.9707
3.96456
3.76288
3.75588
3.95517
-2.69363
4.35902
-1.03262
-6.09534
5.46253
-12.3323
4.41566
-1.01579
-5.15928
14.0917
2.96087
-18.3239
19.4751
-0.693602
-3.41854
2.021
-22.3757
23.1929
-0.479975
-2.35827
1.43898
-25.3009
25.9077
-0.344489
-1.70132
1.069
-27.5007
27.9665
-0.257016
-1.27776
0.806091
-29.1994
29.5601
-0.19485
-0.971996
0.582327
-30.5023
30.7707
-0.142465
-0.708304
0.375638
-31.4419
31.6221
-0.0932239
-0.462616
-32.0389
0.816163
128.923
-0.388852
-1.24731
-32.0107
-32.04
-32.0132
522.453
-2.05218
-4.20418
-129.589
-129.498
-129.61
-129.532
525.71
-1.6078
-3.24356
528.316
-1.29777
-2.599
530.454
-1.0703
-2.13467
532.24
-0.896062
-1.78399
533.751
-0.75864
-1.50961
535.042
-0.648192
-1.28971
536.153
-0.558393
-1.11044
537.115
-0.482102
-0.960575
537.956
-0.428391
-0.839856
-0.343096
-0.718582
533.221
12.7893
12.7619
122.431
43.8016
43.7315
125.15
125.135
127.209
-15.301
-15.3216
112.381
20.3587
20.3145
-9.46964
-9.54586
-23.2269
19.9892
11.139
11.1142
-9.99221
4.7696
4.75755
-5.9884
-6.01167
12.465
-17.1988
3.68212
3.62776
-4.20513
-4.2534
18.3474
2.47269
2.4457
-21.1792
21.9767
-2.84454
-2.87134
1.73074
1.71919
-24.0545
24.66
-2.02154
-2.03395
1.26245
1.25697
-26.2675
26.743
-1.49431
-1.5006
0.955407
0.952234
-28.0186
28.3992
-1.14222
-1.14603
0.73366
0.73155
-29.4238
29.729
-0.88387
-0.886475
0.544692
0.543337
-30.54
30.7761
-0.661214
-0.66291
0.366435
0.365717
-31.3816
31.5502
-0.449917
-0.45082
-31.969
0.825139
0.823245
128.755
-1.24974
-1.25262
-31.975
-31.975
-31.9816
522.366
-4.19713
-4.21168
-129.468
-129.515
-129.515
-129.571
525.649
-3.24529
-3.25878
528.262
-2.60073
-2.61316
530.397
-2.13514
-2.14655
532.178
-1.78369
-1.79415
533.684
-1.50907
-1.51868
534.97
-1.28924
-1.29807
536.078
-1.11012
-1.11825
537.038
-0.96058
-0.968049
537.864
-0.839363
-0.84621
-0.717142
-0.72349
537.8
14.9768
10.3728
128.093
48.1958
33.5426
130.513
129.639
131.644
-22.9291
-10.913
123.401
23.7532
14.781
-6.32617
-13.0476
51.7672
32.8827
27.6445
29.1524
28.4631
29.9196
-15.4151
-12.3086
-14.4789
-118.701
-7.2732
-5.60458
-6.67396
-4.92753
-7.25544
-6.79485
5.258
9.43808
4.28177
0.96745
1.90379
-2.66687
3.72518
-2.6544
-1.27522
-22.756
7.45521
3.53425
-7.27126
-4.09257
23.1303
2.33688
4.86946
-24.1759
-2.73304
24.5276
-4.82503
1.67426
3.44049
-25.5771
25.9179
-3.47852
-1.97706
1.25409
2.55965
-26.9024
27.2157
-2.63336
-1.49368
0.969246
1.97093
-28.107
28.3875
-2.05763
-1.16308
0.767653
1.55697
-29.1786
29.4255
-1.6448
-0.926722
0.611149
1.23702
-30.1153
30.3281
-1.31939
-0.741536
0.469804
0.949188
-30.9123
31.0883
-1.0218
-0.573189
0.330009
0.668569
-31.5568
31.693
-0.728405
-0.406364
-32.0503
0.783885
1.64129
129.021
-1.98737
-1.18457
-32.0781
-32.0587
-32.0868
523.152
-6.08633
-4.06007
-129.686
-129.85
-129.752
-129.922
526.244
-4.74885
-3.17263
528.734
-3.81642
-2.55591
530.779
-3.13491
-2.10449
532.488
-2.61913
-1.7616
533.936
-2.2166
-1.49315
535.176
-1.89483
-1.27815
536.246
-1.6326
-1.10289
537.175
-1.41429
-0.956541
537.978
-1.23274
-0.83738
-1.06427
-0.716529
542.122
14.8979
8.03681
534.709
45.3417
24.4957
131.875
85.6448
46.9022
134.565
133.172
135.079
-23.3575
-31.1898
-21.3974
-28.0259
-45.118
-13.3874
38.4354
17.9526
33.2165
33.3662
33.8352
33.575
-5.83155
-19.0947
-34.9409
36.9155
16.3179
6.63389
0.676949
-4.45505
-16.6334
11.9494
5.63679
2.82573
2.62575
6.59602
-13.4817
9.88876
-4.09967
-1.52917
10.0191
-30.4263
3.11527
29.6697
-8.79664
-3.58115
1.91999
6.11091
-28.7201
-2.26368
28.6069
-5.65406
1.37319
4.33736
-28.5619
28.6087
-4.11991
-1.63748
1.0614
3.32103
-28.8514
28.9538
-3.21154
-1.2733
0.851479
2.6412
-29.3101
29.4385
-2.59484
-1.02625
0.69869
2.15301
-29.8411
29.9779
-2.14299
-0.845528
0.581052
1.78152
-30.3897
30.5251
-1.79239
-0.705572
0.481001
1.47046
-30.9221
31.0496
-1.49295
-0.585985
0.383408
1.1716
-31.4157
31.5305
-1.20073
-0.46907
0.28182
0.86619
-31.8524
31.9506
-0.898679
-0.347499
-32.2276
0.714551
2.27517
129.607
-2.5134
-1.07376
-32.2668
-32.2376
-32.2772
524.734
-7.55837
-3.7856
-130.181
-130.423
-130.26
-130.507
527.463
-5.98834
-2.99987
529.707
-4.85549
-2.43507
531.575
-4.0074
-2.01393
533.149
-3.35721
-1.69081
534.49
-2.84682
-1.43676
535.644
-2.43784
-1.23299
536.643
-2.10396
-1.06679
537.516
-1.82599
-0.927952
538.273
-1.59222
-0.814568
-1.37929
-0.698513
545.149
13.5072
5.99972
543.364
39.527
17.462
136.564
68.1858
30.3909
137.207
136.772
137.519
-32.2027
138.597
27.4836
9.80516
-7.11816
-42.4421
-9.02407
148.538
33.4613
12.1823
-142.715
-9.1385
-1.94669
-155.173
25.2811
9.25792
-7.79008
-8.6792
-7.32812
-1.76434
-1.77456
-1.46717
40.8045
40.4062
39.7557
39.5565
-0.935504
-0.239492
-41.4159
40.9672
0.32425
1.29943
5.5704
4.24978
-149.551
141.425
-12.8843
-5.30748
5.91991
5.11533
5.46225
5.52174
-135.023
4.4677
130.85
-15.3753
-5.88866
5.22437
5.24354
4.98
4.27632
3.62463
-128.165
126.595
-13.4523
-4.95769
4.05794
4.11047
3.91081
3.39565
2.95256
-125.63
125.113
-11.4243
-4.11066
3.25552
3.28959
3.15902
2.79878
2.47249
-124.864
124.82
-9.80346
-3.47471
2.70007
2.72187
2.62938
2.36056
2.11476
-124.921
125.129
-8.51662
-2.99024
2.28702
2.30315
2.23316
2.02104
1.83292
-125.424
125.775
-7.46104
-2.60368
1.9625
1.97648
1.92046
1.74099
1.59381
-126.178
126.606
-6.5439
-2.27293
1.69095
1.7059
1.65779
1.48686
1.36732
-127.064
127.526
-5.66834
-1.95871
1.43856
1.45962
1.41307
1.22758
1.12814
-128.007
128.481
-4.74447
-1.62744
1.17603
1.20807
1.15837
0.951508
0.871963
-128.97
129.444
-3.75318
-1.27359
0.899314
0.940045
0.88963
2.69161
-129.929
0.637843
130.384
-2.83634
-0.948594
526.942
-8.5463
-3.42868
-130.867
-131.176
-130.957
-131.267
529.209
-6.89683
-2.76068
531.12
-5.65378
-2.26249
532.741
-4.70141
-1.88322
534.125
-3.95842
-1.58842
535.315
-3.36896
-1.35504
536.348
-2.89387
-1.1672
537.25
-2.50464
-1.01375
538.042
-2.17996
-0.885462
538.736
-1.90498
-0.780419
-1.6536
-0.671581
547.035
11.4659
4.32951
548.245
32.8683
12.2714
554.151
53.5683
19.9836
567.785
69.7313
26.005
-23.2777
-25.7008
-21.6611
-23.7142
147.287
71.573
26.8315
-26.8548
-25.1026
-24.8096
-23.2063
145.647
146.683
145.343
-20.4108
-3.43811
149.402
16.9995
4.73435
-5.25754
-1.0073
-149.688
148.347
6.1159
1.49069
557.457
-8.69418
-5.18404
7.25591
9.4227
6.09106
8.12544
-145.37
-144.146
-144.869
-143.903
540.93
-21.4699
-9.47308
10.9942
10.841
9.84913
9.85391
530.746
-26.0648
-10.4584
10.7952
10.2349
9.97059
9.53897
524.999
-26.7512
-10.1838
9.75606
9.22774
9.15804
8.70498
522.012
-25.8499
-9.53333
8.68636
8.24803
8.22852
7.83959
520.738
-24.3674
-8.80787
7.74548
7.37772
7.37746
7.04717
520.552
-22.6661
-8.08125
6.92022
6.60204
6.62143
6.3304
521.089
-20.8141
-7.34269
6.16604
5.86595
5.92036
5.64324
522.147
-18.7297
-6.54568
5.41458
5.1007
5.21629
4.92497
523.644
-16.3355
-5.65175
4.60221
4.25887
4.45258
4.13327
525.524
-13.7119
-4.68791
3.72271
3.38124
3.6244
3.30527
527.599
-11.1948
-3.77698
2.89055
2.6249
2.83487
2.57721
529.596
-9.07207
-3.03498
531.351
-7.44314
-2.4789
532.881
-6.17863
-2.05391
534.209
-5.1847
-1.72372
535.364
-4.39428
-1.46315
536.371
-3.75932
-1.25495
537.256
-3.24342
-1.08646
538.038
-2.81855
-0.94842
538.733
-2.46305
-0.832888
539.349
-2.16033
-0.738109
-1.87984
-0.638367
548.004
9.27978
3.04188
550.541
26.4839
8.53157
555.999
42.1102
13.4248
565.047
53.2302
16.8869
574.817
54.2766
17.1079
577.904
41.3882
12.3671
-14.4538
-11.1492
-13.793
-10.6597
572.199
21.3465
5.78392
-6.30956
-2.88202
-6.25959
-3.06785
560.806
2.54748
-0.475214
550.129
-9.29848
-3.96355
542.012
-15.6235
-5.57593
536.463
-18.5282
-6.16214
532.869
-19.4934
-6.22566
530.664
-19.4394
-6.05084
529.421
-18.8058
-5.75402
528.863
-17.7932
-5.37436
528.838
-16.4367
-4.91188
529.281
-14.7461
-4.36125
530.144
-12.8094
-3.74607
531.296
-10.8487
-3.13676
532.558
-9.07923
-2.60323
533.776
-7.6085
-2.17018
534.896
-6.41036
-1.82404
535.906
-5.43831
-1.54724
536.808
-4.6475
-1.32439
537.613
-4.00239
-1.144
538.332
-3.47281
-0.996829
538.978
-3.03379
-0.875736
539.563
-2.66511
-0.774267
540.089
-2.34986
-0.690983
-2.05201
-0.601675
548.367
7.22376
2.10724
551.264
20.8884
5.91242
556.107
33.086
9.18526
562.723
41.4767
11.3453
569.111
42.6615
11.5283
571.534
34.7919
9.0251
568.721
21.6307
5.21712
562.239
8.1999
1.41003
555.149
-1.82637
-1.18809
548.999
-8.32493
-2.76125
544.207
-12.1577
-3.60394
540.676
-14.1737
-3.98966
538.164
-15.0574
-4.10987
536.421
-15.1939
-4.06818
535.268
-14.828
-3.91498
534.597
-14.0557
-3.67025
534.358
-12.9368
-3.34449
534.51
-11.562
-2.9593
534.972
-10.0894
-2.55795
535.623
-8.67895
-2.18454
536.343
-7.42878
-1.8614
537.065
-6.36045
-1.59055
537.756
-5.46302
-1.3665
538.4
-4.71391
-1.18167
538.994
-4.09171
-1.02959
539.539
-3.57465
-0.904198
540.041
-3.14277
-0.800474
540.507
-2.77889
-0.713502
540.938
-2.46727
-0.642261
-2.1654
-0.564194
548.381
5.44419
1.44883
551.191
16.1793
4.11601
555.386
25.9431
6.39487
560.525
32.7054
7.88676
565.237
34.2039
8.11238
567.438
29.4178
6.75967
566.318
20.5775
4.50585
562.625
10.8181
2.08629
557.967
2.64175
0.193117
553.451
-3.35772
-1.14009
549.548
-7.38866
-1.98749
546.387
-9.89254
-2.48803
543.898
-11.3099
-2.75054
541.982
-11.9595
-2.85226
540.537
-12.0606
-2.83857
539.495
-11.7335
-2.7344
538.824
-11.0611
-2.55606
538.496
-10.1319
-2.32295
538.458
-9.06577
-2.06396
538.631
-7.9837
-1.80834
538.932
-6.96971
-1.57417
539.299
-6.06385
-1.3687
539.692
-5.27607
-1.19262
540.088
-4.60068
-1.04341
540.473
-4.02875
-0.918277
540.845
-3.5471
-0.813831
541.2
-3.14176
-0.726912
541.543
-2.79967
-0.654091
541.874
-2.50789
-0.594825
-2.2164
-0.52832
548.221
3.95208
0.994436
550.745
12.3083
2.89397
554.349
20.2222
4.54941
558.559
25.8531
5.66808
562.399
27.5864
5.94055
564.579
24.7703
5.21306
564.538
18.7686
3.84038
562.591
11.6428
2.25631
559.641
5.11582
0.877892
556.414
-0.0948883
-0.194943
553.354
-3.92004
-0.96274
550.658
-6.53411
-1.47593
548.363
-8.19216
-1.79605
546.459
-9.13992
-1.97369
544.903
-9.54979
-2.04412
543.666
-9.54247
-2.03042
542.731
-9.20521
-1.94938
542.083
-8.62031
-1.81789
541.691
-7.88232
-1.65666
541.506
-7.08457
-1.48621
541.469
-6.2967
-1.32085
541.534
-5.56284
-1.16895
541.663
-4.90299
-1.03393
541.831
-4.32214
-0.916183
542.02
-3.82056
-0.815366
542.223
-3.39251
-0.730058
542.433
-3.02994
-0.658623
542.652
-2.72445
-0.598981
542.881
-2.46787
-0.5511
-2.20194
-0.496063
547.963
2.75633
0.686808
550.142
9.16054
2.06976
553.243
15.5587
3.33216
556.847
20.2638
4.22136
560.239
22.0585
4.52434
562.519
20.5142
4.15115
563.212
16.4874
3.29711
562.444
11.3126
2.23336
560.704
6.23819
1.21844
558.505
1.89244
0.363648
556.184
-1.48893
-0.300482
553.958
-3.96284
-0.785432
551.933
-5.65575
-1.12014
550.138
-6.7261
-1.33514
548.579
-7.31051
-1.45571
547.256
-7.51318
-1.50055
546.168
-7.41481
-1.48459
545.312
-7.08805
-1.42213
544.673
-6.60824
-1.32877
544.222
-6.04809
-1.21975
543.922
-5.46394
-1.10645
543.738
-4.89715
-0.996936
543.64
-4.37083
-0.895645
543.604
-3.8955
-0.804522
543.614
-3.47715
-0.724709
543.657
-3.1156
-0.656165
543.728
-2.80814
-0.598404
543.825
-2.55093
-0.550516
543.95
-2.34318
-0.513015
-2.11866
-0.46902
547.684
1.81922
0.480459
549.509
6.61579
1.52756
552.206
11.6659
2.53365
555.424
15.4929
3.27696
558.589
17.1855
3.59469
560.996
16.4682
3.42749
562.25
13.8403
2.88907
562.33
10.1809
2.15415
561.502
6.37305
1.39626
560.094
2.93306
0.71177
558.408
0.104034
0.142902
556.634
-2.06553
-0.301993
554.893
-3.63089
-0.632412
553.254
-4.68829
-0.864949
551.753
-5.33488
-1.0161
550.41
-5.6532
-1.09995
549.241
-5.71124
-1.12883
548.252
-5.56947
-1.11456
547.441
-5.28702
-1.06937
546.795
-4.9199
-1.00508
546.291
-4.51235
-0.930992
545.906
-4.0997
-0.85447
545.617
-3.70399
-0.780232
545.404
-3.33751
-0.710993
545.251
-3.00899
-0.648763
545.147
-2.72181
-0.594426
545.084
-2.47761
-0.54831
545.059
-2.27638
-0.510488
545.08
-2.12803
-0.482045
-1.96141
-0.448426
547.392
1.10153
0.339128
548.91
4.54224
1.17365
551.311
8.30441
2.02061
554.306
11.2249
2.67192
557.371
12.6889
2.99723
559.936
12.4844
2.95461
561.625
10.8898
2.61437
562.332
8.4541
2.09335
562.203
5.75832
1.51341
561.453
3.20536
0.955206
560.303
1.01303
0.462917
558.933
-0.738732
0.0551139
557.472
-2.05694
-0.266418
556.007
-2.99187
-0.508373
554.594
-3.60605
-0.680411
553.271
-3.95882
-0.792498
552.066
-4.10221
-0.854332
550.995
-4.08285
-0.875545
550.066
-3.945
-0.865997
549.276
-3.73001
-0.835271
548.614
-3.47094
-0.791209
548.067
-3.19548
-0.74051
547.617
-2.92211
-0.687892
547.251
-2.66232
-0.636464
546.953
-2.42515
-0.588738
546.712
-2.21563
-0.54622
546.522
-2.03856
-0.509782
546.376
-1.89618
-0.480276
546.285
-1.81247
-0.459335
-1.72017
-0.43526
547.154
0.561767
0.232665
548.429
2.8164
0.948163
550.629
5.28797
1.70777
553.479
7.27054
2.30674
556.516
8.38352
2.6421
559.241
8.46763
2.68301
561.293
7.64137
2.47382
562.52
6.20771
2.09542
562.961
4.51558
1.63753
562.756
2.83408
1.16815
562.073
1.32994
0.730789
561.07
0.0822402
0.349222
559.877
-0.892063
0.0326903
558.591
-1.61185
-0.218642
557.284
-2.11094
-0.409227
556.005
-2.42601
-0.545538
554.793
-2.59158
-0.634912
553.674
-2.63934
-0.685156
552.663
-2.5991
-0.70441
551.766
-2.49852
-0.700754
550.982
-2.3599
-0.681066
550.302
-2.20245
-0.651543
549.717
-2.03954
-0.616854
549.215
-1.88013
-0.580353
548.785
-1.73162
-0.544866
548.417
-1.59895
-0.512351
548.103
-1.48863
-0.484025
547.833
-1.40244
-0.461289
547.618
-1.37852
-0.446157
-1.37195
-0.430646
547.005
0.185568
0.135554
548.103
1.32682
0.822626
550.142
2.51063
1.54387
552.874
3.52146
2.12295
555.904
4.15973
2.4826
558.794
4.3261
2.59539
561.187
4.04452
2.48533
562.886
3.43476
2.20958
563.852
2.65195
1.83687
564.155
1.82885
1.4267
563.92
1.05827
1.02239
563.282
0.392747
0.651651
562.367
-0.147534
0.329431
561.277
-0.563261
0.0613321
560.096
-0.8659
-0.152873
558.886
-1.07132
-0.316629
557.693
-1.19612
-0.43518
556.552
-1.25627
-0.514779
555.487
-1.26698
-0.562275
554.509
-1.24243
-0.584719
553.625
-1.19414
-0.588375
552.832
-1.1322
-0.579128
552.127
-1.0638
-0.561655
551.501
-0.994055
-0.539541
550.946
-0.927282
-0.515873
550.453
-0.866514
-0.492978
550.011
-0.817558
-0.472367
549.61
-0.779844
-0.455689
549.243
-0.793245
-0.444951
-0.857758
-0.436944
546.941
0.0635785
547.914
0.755453
549.729
1.47346
552.267
2.07351
555.242
2.4927
558.281
2.70035
561.034
2.70079
563.255
2.52893
564.83
2.23655
565.752
1.8761
566.086
1.49141
565.933
1.11495
565.406
0.768141
564.611
0.463033
563.636
0.204839
562.558
-0.00584412
561.436
-0.171457
560.313
-0.296344
559.224
-0.386022
558.19
-0.446637
557.222
-0.484039
556.327
-0.503949
555.504
-0.511206
554.752
-0.509731
554.063
-0.503021
553.432
-0.493858
552.845
-0.484112
552.293
-0.476063
551.726
-0.470295
-0.468063
535.565
6.02778
16.5172
126.026
20.041
54.411
126.81
129.107
129.66
-26.1902
119.456
5.86273
26.8982
-14.8471
-27.0326
25.3257
1.77026
14.7837
0.311755
1.23599
-0.0166618
-1.53109
-19.8125
9.12852
-1.04993
-8.86628
20.6001
5.82934
-22.3317
-0.659414
22.8477
-5.68597
3.99689
-24.3061
24.7625
-0.461322
-3.99206
2.90765
-26.0451
26.4434
-0.340485
-2.9654
2.20336
-27.554
27.8973
-0.260153
-2.28652
1.72096
-28.8515
29.1453
-0.20418
-1.81059
1.35048
-29.9568
30.204
-0.161154
-1.43654
1.01403
-30.8742
31.0729
-0.12245
-1.09031
0.68907
-31.5912
31.7373
-0.083994
-0.751169
-32.0957
1.64571
129.113
-0.373738
-1.99899
-32.0738
-32.1182