/*--------------------------------*- C++ -*----------------------------------*\
  =========                 |
  \\      /  F ield         | OpenFOAM: The Open Source CFD Toolbox
   \\    /   O peration     | Website:  https://openfoam.org
    \\  /    A nd           | Version:  7
     \\/     M anipulation  |
\*---------------------------------------------------------------------------*/
FoamFile
{
    version     2.0;
    format      ascii;
    class       volVectorField;
    location    "200";
    object      U;
}
// * * * * * * * * * * * * * * * * * * * * * * * * * * * * * * * * * * * * * //

dimensions      [0 1 -1 0 0 0 0];

internalField   nonuniform List<vector> 
27370
(
(13.8846 0.0863008 0.0857684)
(13.0646 0.333626 0.332457)
(11.0081 0.373466 0.36488)
(5.09976 0.518506 0.484028)
(-0.738222 -0.0939997 -0.115466)
(2.91137 -0.171273 -0.180934)
(6.18964 -0.128427 -0.131381)
(8.46128 -0.0881457 -0.0890381)
(10.0206 -0.0616326 -0.0619498)
(11.1331 -0.0449571 -0.0450992)
(11.9549 -0.0333082 -0.0333874)
(12.5554 -0.0235222 -0.0235719)
(12.9593 -0.014585 -0.0146178)
(13.1884 -0.0130565 -0.0131017)
(13.3334 -0.0179495 -0.0180278)
(13.4262 -0.014769 -0.0148411)
(13.4982 -0.012165 -0.0122309)
(13.5575 -0.0100974 -0.0101574)
(13.607 -0.00847623 -0.008531)
(13.6487 -0.00718382 -0.007234)
(13.6843 -0.00613863 -0.00618475)
(13.7147 -0.00528879 -0.00533122)
(13.7414 -0.00456294 -0.00460196)
(13.7628 -0.00405636 -0.0040922)
(13.7893 -0.00327197 -0.00330531)
(13.8902 0.228764 0.0749349)
(13.2561 0.845442 0.278235)
(11.6602 1.60242 0.313604)
(7.24529 3.75071 0.411796)
(1.57799 -1.41078 -0.153234)
(5.38475 -1.42397 -0.15949)
(7.73932 -0.973787 -0.109323)
(9.33584 -0.673347 -0.0751505)
(10.491 -0.483777 -0.0536953)
(11.3625 -0.361601 -0.0399719)
(12.0363 -0.273853 -0.0302474)
(12.551 -0.198625 -0.0220468)
(12.9177 -0.128854 -0.0143403)
(13.1618 -0.0793893 -0.0136293)
(13.3264 -0.0602429 -0.0184975)
(13.422 -0.0464126 -0.0150991)
(13.4951 -0.0372643 -0.0123879)
(13.5548 -0.0306692 -0.0102668)
(13.6045 -0.0256623 -0.00861526)
(13.6463 -0.02172 -0.00730292)
(13.6818 -0.0185486 -0.00624389)
(13.7123 -0.0159681 -0.00538314)
(13.7389 -0.0137936 -0.00465088)
(13.7605 -0.0121261 -0.00413731)
(13.7868 -0.01016 -0.00329567)
(13.9145 0.303992 0.0599308)
(13.5042 1.03101 0.202826)
(12.6369 2.05318 0.22137)
(10.7625 4.54584 0.263699)
(0.724675 -0.0329918 0.0572058)
(8.21802 -2.67859 -0.152011)
(9.21715 -1.74772 -0.101144)
(10.0365 -1.2236 -0.0718199)
(10.746 -0.901654 -0.0529948)
(11.356 -0.689937 -0.0404259)
(11.8784 -0.542901 -0.0316993)
(12.322 -0.428446 -0.0249932)
(12.6881 -0.32342 -0.0189466)
(12.9711 -0.221268 -0.0129286)
(13.1853 -0.140553 -0.0133143)
(13.345 -0.100736 -0.0183108)
(13.4355 -0.0776609 -0.014929)
(13.5061 -0.0620734 -0.012236)
(13.5638 -0.0508608 -0.0101364)
(13.6119 -0.0424406 -0.0085044)
(13.6523 -0.0358747 -0.00721124)
(13.6868 -0.0306229 -0.00617032)
(13.7163 -0.0263522 -0.00532542)
(13.7421 -0.0227904 -0.00460859)
(13.7632 -0.0198757 -0.00410298)
(13.7886 -0.0170961 -0.00326408)
(13.9542 0.317182 0.0457845)
(13.7145 1.01811 0.143542)
(13.4641 2.06635 0.295742)
(13.192 3.66936 0.280266)
(14.1361 6.41838 0.257084)
(11.5398 -5.61838 -0.185548)
(11.6627 -3.29137 -0.133524)
(11.3681 -2.02204 -0.0802681)
(11.4274 -1.44963 -0.0575444)
(11.6196 -1.10891 -0.0441964)
(11.8682 -0.881485 -0.0352008)
(12.1356 -0.71907 -0.0287187)
(12.401 -0.595707 -0.0237753)
(12.6518 -0.490608 -0.0195652)
(12.8786 -0.386839 -0.0154213)
(13.0727 -0.279952 -0.011049)
(13.2439 -0.186358 -0.0125654)
(13.3871 -0.134427 -0.0175911)
(13.467 -0.105149 -0.014355)
(13.5311 -0.0845363 -0.0117799)
(13.5843 -0.0693922 -0.00977204)
(13.6289 -0.057931 -0.00820823)
(13.6665 -0.0489846 -0.00696998)
(13.6987 -0.041836 -0.00597456)
(13.7264 -0.0360244 -0.00516729)
(13.7507 -0.0311895 -0.00448331)
(13.7707 -0.0271613 -0.00399801)
(13.7947 -0.0234741 -0.0031949)
(13.9814 0.296036 0.03369)
(13.8828 0.894525 0.0993015)
(13.8434 1.63454 0.178966)
(13.946 2.52054 0.144742)
(14.812 3.2309 0.187724)
(16.435 2.99338 0.0909766)
(17.2925 0.282958 0.00895709)
(14.8105 -1.571 -0.0953444)
(13.4061 -1.55899 -0.0927546)
(12.8799 -1.26469 -0.074732)
(12.7008 -1.0318 -0.0606074)
(12.6683 -0.86289 -0.050568)
(12.7077 -0.735981 -0.0431954)
(12.7862 -0.635845 -0.0374527)
(12.8855 -0.551325 -0.0325704)
(12.9941 -0.471652 -0.0278348)
(13.1055 -0.387481 -0.0226903)
(13.216 -0.297128 -0.0170946)
(13.3213 -0.216195 -0.0120757)
(13.4476 -0.159264 -0.0164827)
(13.514 -0.126791 -0.0134431)
(13.5688 -0.103002 -0.0110574)
(13.6152 -0.0850533 -0.00920294)
(13.6546 -0.0712471 -0.00775295)
(13.6882 -0.0603819 -0.0066025)
(13.7171 -0.0516696 -0.00567681)
(13.7422 -0.0445735 -0.00492595)
(13.7643 -0.0386667 -0.0042899)
(13.7826 -0.0337044 -0.00383643)
(13.8048 -0.02917 -0.00308779)
(13.9972 0.257019 0.0240255)
(13.987 0.744913 0.0684567)
(14.0359 1.2525 0.113848)
(14.2857 1.67928 0.153336)
(14.7803 1.75269 0.160271)
(15.2796 1.52437 0.072421)
(15.364 0.439525 0.0193938)
(14.5191 -0.395021 -0.0413909)
(13.9606 -0.637568 -0.0620671)
(13.6125 -0.689168 -0.0637934)
(13.4212 -0.661824 -0.0598126)
(13.3224 -0.611871 -0.0546796)
(13.2791 -0.55946 -0.0497255)
(13.2705 -0.509084 -0.0451283)
(13.2841 -0.459256 -0.0406262)
(13.3126 -0.406152 -0.0358053)
(13.3527 -0.346572 -0.0303691)
(13.4035 -0.282185 -0.0245047)
(13.4622 -0.222214 -0.0191282)
(13.5207 -0.175591 -0.0151143)
(13.5724 -0.14193 -0.0122745)
(13.6166 -0.11654 -0.010133)
(13.6548 -0.0969803 -0.0084778)
(13.6877 -0.0816771 -0.00717723)
(13.7162 -0.0695011 -0.00614033)
(13.7411 -0.0596748 -0.00530308)
(13.7629 -0.0516401 -0.00462287)
(13.7823 -0.0449366 -0.00404628)
(13.7985 -0.0392709 -0.00363372)
(13.8184 -0.034037 -0.00295272)
(14.0059 0.211242 0.0167246)
(14.0406 0.602866 0.0468282)
(14.1267 0.969625 0.0744755)
(14.3224 1.24188 0.0951131)
(14.617 1.26565 0.0968379)
(14.8458 0.925265 0.0680624)
(14.8049 0.406335 0.0281489)
(14.5156 -0.0549194 -0.00773771)
(14.1825 -0.309133 -0.0258948)
(13.926 -0.423601 -0.0333593)
(13.7511 -0.461988 -0.0354171)
(13.638 -0.463203 -0.0349382)
(13.5687 -0.447367 -0.0334035)
(13.5294 -0.423307 -0.0314034)
(13.5108 -0.393601 -0.0290637)
(13.5073 -0.357817 -0.0263131)
(13.5165 -0.315254 -0.0230807)
(13.5376 -0.267827 -0.0194967)
(13.5686 -0.221356 -0.016025)
(13.6044 -0.181287 -0.0131127)
(13.6397 -0.149549 -0.0108432)
(13.672 -0.124469 -0.00905998)
(13.7009 -0.104588 -0.0076498)
(13.7266 -0.0887176 -0.00652492)
(13.7494 -0.0759211 -0.00561874)
(13.7697 -0.0655026 -0.00488198)
(13.7877 -0.0569353 -0.00428141)
(13.8041 -0.0497627 -0.00377169)
(13.8178 -0.0436705 -0.00340606)
(13.8352 -0.0379415 -0.00280199)
(14.0095 0.166415 0.011479)
(14.0622 0.476466 0.0320249)
(14.1563 0.754374 0.0499166)
(14.3125 0.948874 0.0620546)
(14.5095 0.969956 0.0630032)
(14.6521 0.760557 0.0481862)
(14.644 0.431108 0.0262073)
(14.4934 0.108856 0.00498763)
(14.29 -0.110724 -0.0087084)
(14.1069 -0.240981 -0.016558)
(13.9625 -0.310016 -0.0205083)
(13.8557 -0.340833 -0.0221022)
(13.7797 -0.349241 -0.0223829)
(13.7271 -0.344251 -0.0219009)
(13.692 -0.330067 -0.0208894)
(13.6705 -0.308149 -0.0194205)
(13.6608 -0.279197 -0.0175295)
(13.6622 -0.245109 -0.0153308)
(13.6733 -0.20989 -0.0130862)
(13.6908 -0.177343 -0.0110553)
(13.7111 -0.149586 -0.00934715)
(13.7317 -0.126531 -0.0079369)
(13.7514 -0.107598 -0.00678413)
(13.7697 -0.0921018 -0.00584349)
(13.7865 -0.0793913 -0.00507403)
(13.8019 -0.0689227 -0.00444222)
(13.8159 -0.0602521 -0.0039247)
(13.8289 -0.0529645 -0.003485)
(13.84 -0.0467536 -0.0031692)
(13.8546 -0.0407748 -0.0026476)
(14.01 0.126686 0.00782178)
(14.0659 0.370025 0.0220159)
(14.1553 0.588342 0.0342291)
(14.2829 0.73889 0.0422685)
(14.4272 0.765716 0.0433358)
(14.5314 0.639577 0.0354119)
(14.5439 0.421423 0.0227548)
(14.4666 0.190632 0.00955267)
(14.3423 0.00911079 -0.000412719)
(14.2145 -0.11661 -0.00717417)
(14.1015 -0.196139 -0.0113644)
(14.0089 -0.242006 -0.0137213)
(13.9361 -0.265236 -0.0148775)
(13.88 -0.273283 -0.0152382)
(13.8375 -0.270538 -0.0150291)
(13.8064 -0.259292 -0.0143649)
(13.7853 -0.240985 -0.0133202)
(13.7738 -0.217466 -0.0119962)
(13.771 -0.191612 -0.0105586)
(13.7749 -0.166245 -0.0091708)
(13.7829 -0.143262 -0.00792801)
(13.7931 -0.123241 -0.00685214)
(13.8042 -0.106186 -0.00594032)
(13.8154 -0.0918408 -0.00517618)
(13.8263 -0.0798427 -0.0045393)
(13.8368 -0.0698276 -0.00400994)
(13.8466 -0.0614663 -0.00357381)
(13.8562 -0.0544155 -0.00320337)
(13.8646 -0.0484069 -0.0029374)
(13.8763 -0.0424517 -0.00250042)
(14.0087 0.0933132 0.00533023)
(14.0603 0.282758 0.0153155)
(14.1402 0.458129 0.0240679)
(14.2469 0.581167 0.029918)
(14.3615 0.613467 0.0312311)
(14.4483 0.538469 0.0269968)
(14.4757 0.391852 0.0194149)
(14.4418 0.224256 0.0108869)
(14.3685 0.07811 0.00366706)
(14.2817 -0.03398 -0.00182094)
(14.1964 -0.112819 -0.00566697)
(14.1199 -0.164298 -0.00817797)
(14.0547 -0.195292 -0.00970254)
(14.0003 -0.211419 -0.0105091)
(13.9558 -0.216552 -0.0107783)
(13.92 -0.213138 -0.0106228)
(13.8924 -0.202883 -0.0101241)
(13.8727 -0.187529 -0.00936947)
(13.8604 -0.169261 -0.00847317)
(13.8542 -0.150218 -0.00754615)
(13.8527 -0.132005 -0.00666557)
(13.8543 -0.115424 -0.00586676)
(13.8579 -0.100794 -0.00516395)
(13.8626 -0.0881469 -0.00455775)
(13.8679 -0.0773511 -0.00404184)
(13.8736 -0.0682117 -0.00360706)
(13.8795 -0.0605234 -0.00324659)
(13.8855 -0.0540321 -0.00294146)
(13.8912 -0.0485422 -0.0027228)
(13.8998 -0.0429035 -0.00236968)
(14.0063 0.0662403 0.00366347)
(14.0503 0.212172 0.0108775)
(14.1197 0.354092 0.0174493)
(14.2111 0.456792 0.0220235)
(14.3087 0.492041 0.0235029)
(14.3878 0.449403 0.0213173)
(14.4268 0.35056 0.016653)
(14.4214 0.228726 0.010972)
(14.3827 0.113675 0.00569102)
(14.3266 0.01853 0.00131249)
(14.2646 -0.0535521 -0.0020384)
(14.2036 -0.104503 -0.00444841)
(14.1475 -0.13816 -0.00608599)
(14.0974 -0.15843 -0.00711574)
(14.0538 -0.168437 -0.00766876)
(14.0164 -0.170406 -0.00783847)
(13.9853 -0.166015 -0.00769918)
(13.9605 -0.156828 -0.00732436)
(13.9417 -0.144562 -0.00679794)
(13.9284 -0.130862 -0.00620041)
(13.9196 -0.117046 -0.00559361)
(13.9142 -0.10393 -0.00501455)
(13.9114 -0.0919623 -0.00448436)
(13.9104 -0.0813368 -0.00401267)
(13.9107 -0.0720821 -0.00360195)
(13.912 -0.0641385 -0.00325061)
(13.9139 -0.0574161 -0.00295733)
(13.9166 -0.0517566 -0.0027112)
(13.9194 -0.0470794 -0.00253524)
(13.9249 -0.042066 -0.00226296)
(14.0032 0.0448935 0.00255677)
(14.0384 0.155408 0.00797056)
(14.0983 0.269012 0.0131537)
(14.1789 0.353855 0.0169426)
(14.2668 0.388844 0.018507)
(14.3433 0.366933 0.01749)
(14.3917 0.301404 0.0145682)
(14.4064 0.21415 0.0106744)
(14.3926 0.126089 0.00674351)
(14.36 0.0487774 0.00323889)
(14.317 -0.0132267 0.000359879)
(14.2701 -0.0596316 -0.00186753)
(14.2231 -0.0922591 -0.00350457)
(14.1785 -0.113613 -0.00464264)
(14.1373 -0.126003 -0.00536826)
(14.1001 -0.131273 -0.00575265)
(14.0674 -0.130902 -0.00585783)
(14.0395 -0.126229 -0.00574446)
(14.0165 -0.118601 -0.00547714)
(13.998 -0.109288 -0.0051175)
(13.9837 -0.0993419 -0.00471604)
(13.9728 -0.0894945 -0.00430783)
(13.9647 -0.0802095 -0.0039162)
(13.9588 -0.0717499 -0.00355535)
(13.9546 -0.0642364 -0.00323297)
(13.9518 -0.0577036 -0.00295263)
(13.95 -0.0521593 -0.00271671)
(13.9493 -0.0475348 -0.00252193)
(13.9494 -0.0439213 -0.00238243)
(13.9516 -0.0398581 -0.00218639)
(13.9999 0.0285151 0.00180645)
(14.0268 0.109694 0.00608461)
(14.079 0.197366 0.0104085)
(14.1522 0.264582 0.0137123)
(14.2349 0.296266 0.0153214)
(14.3114 0.287483 0.0149989)
(14.3678 0.246043 0.0131563)
(14.3977 0.185942 0.0104124)
(14.4026 0.121506 0.00741428)
(14.3883 0.0619727 0.00456041)
(14.3612 0.0119392 0.00206653)
(14.3265 -0.0272316 1.75054e-05)
(14.2884 -0.0561143 -0.00158606)
(14.2494 -0.076124 -0.00278337)
(14.2113 -0.0888302 -0.00362564)
(14.1753 -0.0956338 -0.00416362)
(14.1422 -0.0977264 -0.0044463)
(14.1126 -0.0961796 -0.00452305)
(14.0867 -0.0920266 -0.00444533)
(14.0646 -0.086223 -0.00426265)
(14.0461 -0.0795758 -0.00401756)
(14.0309 -0.0726858 -0.00374261)
(14.0184 -0.0659665 -0.00346157)
(14.0083 -0.0596844 -0.00319091)
(14.0001 -0.0539971 -0.00294145)
(13.9935 -0.0489927 -0.00272034)
(13.9883 -0.0447536 -0.00253203)
(13.9843 -0.0412826 -0.00238068)
(13.9815 -0.0389074 -0.0022701)
(13.9802 -0.0361353 -0.00214512)
(13.9971 0.0161992 0.00124854)
(14.0171 0.0725167 0.00489134)
(14.0637 0.135004 0.00874279)
(14.132 0.183976 0.0117702)
(14.2119 0.209818 0.0134299)
(14.2898 0.20894 0.0135595)
(14.3532 0.185278 0.012419)
(14.3953 0.147113 0.010434)
(14.4153 0.103619 0.00807495)
(14.4162 0.0614624 0.00568097)
(14.4026 0.0245278 0.00346708)
(14.3789 -0.00554313 0.00154787)
(14.3489 -0.0286008 -3.5822e-05)
(14.3156 -0.0453019 -0.00128687)
(14.281 -0.0565911 -0.00222958)
(14.2468 -0.0634162 -0.00289703)
(14.214 -0.0666372 -0.00332619)
(14.1835 -0.067037 -0.0035568)
(14.1557 -0.0653544 -0.00363096)
(14.131 -0.0622651 -0.00359009)
(14.1093 -0.0583457 -0.00347142)
(14.0906 -0.0540432 -0.00330543)
(14.0745 -0.0496819 -0.0031159)
(14.0607 -0.0454876 -0.00292072)
(14.0489 -0.0416124 -0.00273264)
(14.0389 -0.038161 -0.00256162)
(14.0304 -0.0352605 -0.00241278)
(14.0231 -0.032954 -0.00229776)
(14.0174 -0.0318423 -0.00220719)
(14.0117 -0.0306614 -0.002147)
(13.9961 0.00646823 0.000722813)
(14.0109 0.0416682 0.0042536)
(14.0531 0.0790105 0.00791221)
(14.1172 0.109263 0.0108306)
(14.195 0.127216 0.0126073)
(14.2747 0.130228 0.0131049)
(14.345 0.119482 0.0124712)
(14.3985 0.0991166 0.0110103)
(14.4322 0.074175 0.00908209)
(14.4471 0.0487541 0.00698578)
(14.4462 0.0255582 0.00493675)
(14.4331 0.00598981 0.00307063)
(14.4114 -0.00953174 0.00145782)
(14.3842 -0.0211861 0.000122581)
(14.3537 -0.0294307 -0.000938648)
(14.3218 -0.0348044 -0.00174442)
(14.29 -0.0378342 -0.00232157)
(14.2593 -0.0390111 -0.00270195)
(14.2304 -0.0387935 -0.00292067)
(14.2038 -0.0375963 -0.00301354)
(14.1796 -0.0357729 -0.00301403)
(14.1579 -0.0336049 -0.0029512)
(14.1386 -0.0312989 -0.0028488)
(14.1215 -0.029011 -0.00272599)
(14.1064 -0.0268468 -0.0025968)
(14.093 -0.0248935 -0.00247367)
(14.0812 -0.0232858 -0.00236179)
(14.0703 -0.0220182 -0.00227864)
(14.0617 -0.0219733 -0.00220151)
(14.0498 -0.0225816 -0.00219839)
(13.9983 0.000679194 0.000313784)
(14.0092 0.0162406 0.00394854)
(14.0448 0.0332652 0.00766431)
(14.1029 0.0486623 0.0107311)
(14.1768 0.0598384 0.0128508)
(14.2575 0.0649741 0.0138621)
(14.335 0.063678 0.0137982)
(14.4009 0.0570374 0.0128529)
(14.4503 0.0469919 0.0113039)
(14.482 0.0354715 0.00942301)
(14.497 0.0240002 0.00743387)
(14.4979 0.0135813 0.00550099)
(14.4876 0.0047326 0.00373051)
(14.469 -0.00238015 0.00218046)
(14.4449 -0.00781244 0.000874417)
(14.4173 -0.0117383 -0.000186958)
(14.3879 -0.0143792 -0.00101748)
(14.3582 -0.0159672 -0.00164014)
(14.329 -0.0167283 -0.00208348)
(14.3011 -0.0168718 -0.00237862)
(14.275 -0.0165796 -0.00255637)
(14.2507 -0.0160017 -0.00264514)
(14.2283 -0.0152536 -0.00266954)
(14.2079 -0.0144244 -0.00265068)
(14.1893 -0.0135815 -0.00260508)
(14.1722 -0.0127713 -0.0025482)
(14.1567 -0.0120882 -0.00248663)
(14.1414 -0.0115044 -0.00244314)
(14.1298 -0.0114669 -0.00238639)
(14.1073 -0.0125102 -0.0024013)
(13.8901 0.0750537 0.228287)
(13.2559 0.278892 0.843675)
(11.6587 0.314724 1.59706)
(7.24888 0.412445 3.75658)
(1.66787 -0.153491 -1.5706)
(5.43226 -0.156055 -1.47651)
(7.75213 -0.107748 -0.989799)
(9.33907 -0.0745651 -0.678904)
(10.4918 -0.0534513 -0.486065)
(11.3627 -0.0398453 -0.362764)
(12.0364 -0.030169 -0.274558)
(12.551 -0.0219968 -0.199072)
(12.9176 -0.0143114 -0.129126)
(13.1618 -0.0135917 -0.079599)
(13.3264 -0.0184257 -0.0604706)
(13.422 -0.0150314 -0.0466231)
(13.4951 -0.0123257 -0.0374571)
(13.5548 -0.01021 -0.0308454)
(13.6045 -0.00856343 -0.0258234)
(13.6463 -0.00725546 -0.0218679)
(13.6818 -0.0062003 -0.0186845)
(13.7123 -0.00534305 -0.0160931)
(13.7389 -0.00461403 -0.0139086)
(13.7605 -0.00410347 -0.0122318)
(13.7868 -0.00326418 -0.0102583)
(13.902 0.20205 0.201822)
(13.3912 0.719678 0.718381)
(12.1386 1.3772 1.37366)
(8.81503 3.15781 3.14509)
(4.66118 -1.61829 -1.6248)
(7.2911 -1.20663 -1.22236)
(8.8443 -0.820055 -0.828488)
(9.98066 -0.579446 -0.583197)
(10.8594 -0.425588 -0.42742)
(11.5565 -0.323627 -0.324707)
(12.1163 -0.249374 -0.250101)
(12.5593 -0.185773 -0.186243)
(12.8901 -0.125648 -0.125896)
(13.1435 -0.0800015 -0.0801818)
(13.3235 -0.0607916 -0.0610041)
(13.4202 -0.0469049 -0.0471029)
(13.4937 -0.0376295 -0.0378122)
(13.5534 -0.0309423 -0.0311098)
(13.6029 -0.0258781 -0.0260315)
(13.6446 -0.0219 -0.0220408)
(13.68 -0.0187057 -0.0188351)
(13.7104 -0.0161088 -0.0162279)
(13.7369 -0.0139237 -0.0140331)
(13.7586 -0.0122467 -0.012347)
(13.7847 -0.0101813 -0.0102742)
(13.9299 0.273316 0.163629)
(13.5841 0.907275 0.541454)
(12.8895 1.79959 0.992085)
(11.863 4.07533 2.27844)
(11.2231 9.44863 4.82835)
(5.3958 -2.90649 -1.36221)
(9.36503 -2.20305 -1.14377)
(9.97045 -1.48586 -0.780523)
(10.5465 -1.06701 -0.56507)
(11.0842 -0.801051 -0.425002)
(11.5709 -0.621237 -0.329466)
(12.003 -0.493614 -0.261593)
(12.3797 -0.393995 -0.208695)
(12.6987 -0.303641 -0.160794)
(12.9546 -0.215112 -0.113414)
(13.1753 -0.140318 -0.0759648)
(13.347 -0.100572 -0.0591057)
(13.4372 -0.077804 -0.0460771)
(13.5071 -0.0622813 -0.0371285)
(13.5642 -0.0510687 -0.0305918)
(13.6117 -0.0426368 -0.0256187)
(13.6517 -0.0360618 -0.021711)
(13.6858 -0.0308037 -0.0185751)
(13.7151 -0.0265275 -0.0160261)
(13.7408 -0.0229608 -0.0138831)
(13.7618 -0.0200284 -0.0122292)
(13.787 -0.0172194 -0.010178)
(13.9636 0.290178 0.126149)
(13.7686 0.915463 0.392277)
(13.5943 1.80594 0.770908)
(13.4313 3.15992 1.21985)
(14.3648 5.23504 1.87055)
(20.2391 7.87612 2.76287)
(16.5884 -5.77631 -1.98105)
(12.1004 -2.75274 -0.989239)
(11.7054 -1.77178 -0.634424)
(11.7036 -1.29628 -0.46427)
(11.8372 -1.00445 -0.360756)
(12.0313 -0.805646 -0.289991)
(12.2509 -0.661126 -0.238326)
(12.4755 -0.550092 -0.198475)
(12.6921 -0.456138 -0.164515)
(12.8918 -0.365118 -0.131364)
(13.0673 -0.27159 -0.0968996)
(13.2424 -0.184975 -0.0690114)
(13.3936 -0.13328 -0.0554093)
(13.4719 -0.104629 -0.0437855)
(13.5345 -0.0843144 -0.0355161)
(13.5865 -0.0693277 -0.0293656)
(13.6301 -0.0579564 -0.024647)
(13.6671 -0.0490674 -0.0209304)
(13.6988 -0.0419572 -0.0179468)
(13.7261 -0.0361706 -0.0155218)
(13.7501 -0.0313518 -0.0134838)
(13.77 -0.0273158 -0.0119042)
(13.7937 -0.023639 -0.00993882)
(13.9859 0.273847 0.0936648)
(13.9122 0.818492 0.275772)
(13.8919 1.47125 0.489778)
(13.9938 2.2731 0.657737)
(14.7836 2.84027 0.826899)
(16.073 2.17342 0.642507)
(16.7608 0.351023 0.091711)
(14.7817 -1.23627 -0.372417)
(13.5429 -1.34327 -0.400693)
(13.0243 -1.13141 -0.335115)
(12.8302 -0.939665 -0.276314)
(12.7793 -0.793498 -0.232293)
(12.7997 -0.680927 -0.199074)
(12.8597 -0.590704 -0.172765)
(12.9416 -0.513955 -0.150397)
(13.0345 -0.441972 -0.12921)
(13.1319 -0.366861 -0.106892)
(13.2307 -0.286606 -0.0830436)
(13.3287 -0.213129 -0.0612003)
(13.4578 -0.156848 -0.050497)
(13.5214 -0.125384 -0.0404989)
(13.5743 -0.102163 -0.0331275)
(13.6191 -0.0845616 -0.02754)
(13.6573 -0.0709785 -0.0232066)
(13.69 -0.0602635 -0.0197759)
(13.7182 -0.0516543 -0.0170153)
(13.7428 -0.0446294 -0.0147694)
(13.7645 -0.0387728 -0.0128812)
(13.7826 -0.0338256 -0.0114122)
(13.8044 -0.0293356 -0.00957569)
(13.9995 0.239778 0.0672887)
(14.0008 0.691891 0.191861)
(14.0592 1.15081 0.315909)
(14.2974 1.52558 0.413784)
(14.7406 1.58379 0.435469)
(15.198 1.40799 0.322882)
(15.2711 0.446923 0.09768)
(14.5174 -0.308695 -0.0991422)
(14.0132 -0.552133 -0.161035)
(13.6818 -0.617043 -0.171358)
(13.4912 -0.602997 -0.163557)
(13.3879 -0.563234 -0.151033)
(13.3384 -0.518347 -0.138148)
(13.3227 -0.473814 -0.125819)
(13.3291 -0.429119 -0.113642)
(13.3504 -0.381367 -0.100721)
(13.3835 -0.327946 -0.0863439)
(13.4273 -0.270164 -0.07091)
(13.4796 -0.215457 -0.0564782)
(13.5333 -0.171714 -0.0449535)
(13.5816 -0.13951 -0.0365333)
(13.6235 -0.114992 -0.0301792)
(13.6599 -0.0959818 -0.0252732)
(13.6915 -0.081043 -0.0214203)
(13.7191 -0.0691175 -0.0183465)
(13.7432 -0.0594669 -0.0158616)
(13.7643 -0.051557 -0.0138352)
(13.7833 -0.0449448 -0.0121302)
(13.7992 -0.0393248 -0.0107997)
(13.8187 -0.034174 -0.00912386)
(14.0068 0.198423 0.0471224)
(14.0461 0.56541 0.132251)
(14.1349 0.904694 0.209222)
(14.3228 1.15158 0.264476)
(14.5953 1.17214 0.269519)
(14.8039 0.867323 0.191211)
(14.7699 0.399301 0.0857027)
(14.5109 -0.0233958 -0.0145534)
(14.2042 -0.26659 -0.0676852)
(13.96 -0.382007 -0.0906829)
(13.7893 -0.424528 -0.0980065)
(13.6767 -0.430104 -0.0977171)
(13.6058 -0.418095 -0.0940516)
(13.5639 -0.397345 -0.0888181)
(13.5422 -0.370778 -0.0825094)
(13.5354 -0.338406 -0.0750315)
(13.5411 -0.299795 -0.0662408)
(13.5582 -0.256629 -0.0564853)
(13.5851 -0.213844 -0.0469129)
(13.6172 -0.176397 -0.0386542)
(13.6496 -0.146293 -0.0320771)
(13.6797 -0.122274 -0.0268704)
(13.707 -0.103096 -0.0227335)
(13.7314 -0.0877077 -0.0194234)
(13.7532 -0.0752495 -0.0167505)
(13.7726 -0.0650734 -0.0145731)
(13.79 -0.0566828 -0.0127907)
(13.8058 -0.0496435 -0.0112891)
(13.8193 -0.04363 -0.0101155)
(13.8362 -0.0380254 -0.00862264)
(14.0097 0.157207 0.0325)
(14.0637 0.450177 0.0910373)
(14.1576 0.711244 0.141607)
(14.3088 0.892042 0.175445)
(14.4951 0.911964 0.178344)
(14.6293 0.722325 0.137801)
(14.6246 0.419626 0.077534)
(14.4877 0.120084 0.0178538)
(14.2983 -0.0895317 -0.0218543)
(14.1237 -0.216763 -0.0450363)
(13.9839 -0.285842 -0.0570655)
(13.879 -0.317966 -0.0622354)
(13.8034 -0.32804 -0.063473)
(13.7504 -0.324785 -0.0623997)
(13.7143 -0.312459 -0.0597409)
(13.6914 -0.292704 -0.0557534)
(13.68 -0.266341 -0.0505646)
(13.6792 -0.235123 -0.0444955)
(13.6877 -0.202568 -0.0382329)
(13.7028 -0.172117 -0.0324735)
(13.721 -0.145865 -0.0275592)
(13.7397 -0.123884 -0.0234717)
(13.758 -0.105713 -0.0201108)
(13.7751 -0.0907626 -0.0173566)
(13.791 -0.0784485 -0.0150963)
(13.8055 -0.0682723 -0.013236)
(13.8189 -0.0598204 -0.0117054)
(13.8313 -0.0527028 -0.0104149)
(13.8422 -0.0466016 -0.0094064)
(13.8562 -0.040787 -0.00810992)
(14.0099 0.120215 0.0222346)
(14.0656 0.351563 0.0629347)
(14.1538 0.558778 0.0978298)
(14.2781 0.701195 0.120752)
(14.4167 0.72732 0.124013)
(14.517 0.611812 0.102286)
(14.5315 0.40905 0.0669515)
(14.4609 0.192389 0.0295419)
(14.3446 0.0190036 0.0006728)
(14.2227 -0.102695 -0.0191352)
(14.1135 -0.180665 -0.0315864)
(14.0232 -0.226303 -0.0387244)
(13.9515 -0.249943 -0.0423308)
(13.8959 -0.258737 -0.04358)
(13.8535 -0.257003 -0.0431466)
(13.822 -0.24708 -0.0413856)
(13.8002 -0.23044 -0.0385265)
(13.7876 -0.208832 -0.0348582)
(13.7834 -0.184856 -0.0308299)
(13.7856 -0.161101 -0.0268929)
(13.7922 -0.139394 -0.0233291)
(13.8011 -0.120355 -0.0202227)
(13.811 -0.104042 -0.0175748)
(13.8212 -0.0902539 -0.0153456)
(13.8313 -0.078676 -0.0134813)
(13.841 -0.0689806 -0.0119277)
(13.8503 -0.0608651 -0.010642)
(13.8593 -0.0540108 -0.0095586)
(13.8674 -0.048137 -0.0087149)
(13.8785 -0.0423807 -0.0076197)
(14.0085 0.0888504 0.0151978)
(14.0594 0.26976 0.0439861)
(14.1379 0.437344 0.0691916)
(14.2422 0.554976 0.0861049)
(14.3536 0.586621 0.0900543)
(14.4382 0.51762 0.078419)
(14.4666 0.380223 0.0570563)
(14.4365 0.221809 0.0327424)
(14.3679 0.0819724 0.0118127)
(14.2852 -0.0262759 -0.00422298)
(14.2029 -0.103038 -0.0155582)
(14.1286 -0.15358 -0.0230326)
(14.0648 -0.184307 -0.0276224)
(14.0113 -0.200585 -0.0301023)
(13.9673 -0.206181 -0.0310033)
(13.9317 -0.203528 -0.0306632)
(13.904 -0.194321 -0.0293262)
(13.8839 -0.180225 -0.0272442)
(13.8708 -0.163263 -0.024734)
(13.8638 -0.145423 -0.0221073)
(13.8613 -0.128234 -0.0195882)
(13.8619 -0.112492 -0.017288)
(13.8646 -0.0985321 -0.0152531)
(13.8685 -0.0864107 -0.0134902)
(13.8732 -0.0760269 -0.0119846)
(13.8783 -0.0672111 -0.0107125)
(13.8835 -0.0597785 -0.00965314)
(13.8891 -0.0534977 -0.00876359)
(13.8944 -0.0481587 -0.00807669)
(13.9025 -0.0427453 -0.00718065)
(14.0061 0.0632248 0.0104633)
(14.0492 0.20301 0.0313608)
(14.1174 0.339218 0.0504055)
(14.207 0.438011 0.0637406)
(14.3025 0.472537 0.0681581)
(14.3802 0.433333 0.0621666)
(14.4196 0.340231 0.0489475)
(14.4164 0.224531 0.0326713)
(14.3807 0.114257 0.0173476)
(14.3274 0.0224243 0.00456302)
(14.2677 -0.0475645 -0.00528164)
(14.2087 -0.0973161 -0.012407)
(14.154 -0.130375 -0.0172796)
(14.105 -0.150455 -0.0203718)
(14.0621 -0.16058 -0.0220666)
(14.0252 -0.162935 -0.0226408)
(13.9943 -0.159169 -0.0223145)
(13.9695 -0.150792 -0.0213007)
(13.9505 -0.139414 -0.0198363)
(13.9367 -0.126583 -0.0181496)
(13.9274 -0.113552 -0.0164195)
(13.9214 -0.101115 -0.0147572)
(13.918 -0.0897147 -0.0132268)
(13.9164 -0.0795545 -0.0118593)
(13.9161 -0.0706777 -0.0106643)
(13.9169 -0.0630403 -0.00963945)
(13.9184 -0.0565665 -0.00878048)
(13.9206 -0.0511175 -0.00806467)
(13.9231 -0.0465966 -0.00752042)
(13.9281 -0.0418242 -0.00681587)
(14.0031 0.0429092 0.00730366)
(14.0375 0.148976 0.0230544)
(14.0963 0.258305 0.0381557)
(14.1755 0.34021 0.0492517)
(14.2618 0.374436 0.0539049)
(14.3372 0.354468 0.0511615)
(14.3856 0.292565 0.0428524)
(14.4016 0.209452 0.0316541)
(14.3897 0.124937 0.0202337)
(14.359 0.050322 0.00999865)
(14.3179 -0.00980104 0.0015507)
(14.2726 -0.0549904 -0.00501414)
(14.227 -0.086896 -0.00985956)
(14.1835 -0.107887 -0.0132456)
(14.1431 -0.120188 -0.0154239)
(14.1066 -0.125599 -0.0166046)
(14.0744 -0.125569 -0.0169702)
(14.0467 -0.121389 -0.0166973)
(14.0238 -0.114342 -0.0159701)
(14.0052 -0.10563 -0.0149649)
(13.9907 -0.0962566 -0.0138273)
(13.9794 -0.0869279 -0.0126609)
(13.9709 -0.0780961 -0.0115351)
(13.9646 -0.0700228 -0.0104928)
(13.96 -0.062834 -0.00955816)
(13.9568 -0.0565725 -0.00874311)
(13.9547 -0.0512541 -0.00805492)
(13.9536 -0.0468266 -0.00748878)
(13.9534 -0.0433628 -0.00706825)
(13.9552 -0.0395434 -0.00654352)
(13.9999 0.0272597 0.00515044)
(14.0261 0.105259 0.017652)
(14.0774 0.189778 0.0303114)
(14.1494 0.254787 0.0400097)
(14.2307 0.285732 0.0447865)
(14.3062 0.277982 0.0439906)
(14.3623 0.238791 0.0387433)
(14.3928 0.18144 0.0308279)
(14.3989 0.119553 0.0221039)
(14.3861 0.0621016 0.0137619)
(14.3604 0.0136294 0.00644536)
(14.3272 -0.0244504 0.000414117)
(14.2902 -0.0526194 -0.00432002)
(14.2523 -0.0722058 -0.00786624)
(14.2152 -0.0847163 -0.0103732)
(14.18 -0.0915118 -0.0119901)
(14.1475 -0.0937537 -0.0128613)
(14.1183 -0.0924795 -0.0131307)
(14.0927 -0.0886787 -0.0129462)
(14.0707 -0.0832631 -0.0124499)
(14.0522 -0.0770053 -0.0117647)
(14.0368 -0.0704842 -0.0109856)
(14.0242 -0.0641006 -0.0101827)
(14.0138 -0.0581154 -0.00940491)
(14.0054 -0.0526862 -0.00868493)
(13.9986 -0.0479043 -0.00804451)
(13.9931 -0.043855 -0.00749808)
(13.9888 -0.0405538 -0.00705667)
(13.9858 -0.0383099 -0.00673723)
(13.984 -0.0357672 -0.00637834)
(13.9971 0.0154431 0.00353778)
(14.0166 0.0696121 0.0142197)
(14.0624 0.129932 0.0255384)
(14.1296 0.177331 0.0344424)
(14.2082 0.202523 0.0393732)
(14.285 0.202108 0.0398668)
(14.348 0.179736 0.0366293)
(14.3903 0.143284 0.0308914)
(14.411 0.101494 0.024014)
(14.4129 0.0608204 0.0170052)
(14.4004 0.0250646 0.010504)
(14.3779 -0.00413092 0.00485402)
(14.349 -0.026576 0.000182238)
(14.3168 -0.0428771 -0.00351581)
(14.2832 -0.0539369 -0.00631027)
(14.2498 -0.0606726 -0.00829863)
(14.2177 -0.0639198 -0.00959008)
(14.1877 -0.0644372 -0.010301)
(14.1604 -0.0629359 -0.0105531)
(14.136 -0.0600648 -0.010466)
(14.1145 -0.0563781 -0.010147)
(14.0958 -0.0523075 -0.00968486)
(14.0797 -0.0481667 -0.0091492)
(14.0658 -0.0441758 -0.00859274)
(14.054 -0.0404839 -0.0080535)
(14.0438 -0.0371958 -0.00756058)
(14.0352 -0.034439 -0.00713232)
(14.0276 -0.0322621 -0.00679336)
(14.0217 -0.0312536 -0.00654939)
(14.0157 -0.0302632 -0.00633974)
(13.9962 0.0060812 0.00204859)
(14.0106 0.0399909 0.0123285)
(14.0519 0.0760961 0.0230728)
(14.115 0.105389 0.0316728)
(14.1915 0.122867 0.0369667)
(14.27 0.126013 0.0385483)
(14.3397 0.115883 0.0368057)
(14.3929 0.0964266 0.032611)
(14.4269 0.0724526 0.0270056)
(14.4425 0.047921 0.0208749)
(14.4425 0.0254674 0.0148586)
(14.4305 0.00647506 0.0093621)
(14.4098 -0.00862463 0.00459912)
(14.3835 -0.0199872 0.000646517)
(14.354 -0.0280461 -0.00250323)
(14.323 -0.0333197 -0.00490343)
(14.292 -0.0363184 -0.0066326)
(14.2619 -0.0375181 -0.007784)
(14.2336 -0.0373622 -0.00845977)
(14.2074 -0.0362524 -0.00876381)
(14.1835 -0.0345314 -0.00879337)
(14.1621 -0.0324726 -0.00863326)
(14.1429 -0.0302772 -0.00835314)
(14.1259 -0.0280968 -0.00800925)
(14.1109 -0.0260349 -0.00764378)
(14.0975 -0.0241765 -0.007292)
(14.0857 -0.022657 -0.00697519)
(14.0747 -0.0214649 -0.00672616)
(14.0659 -0.0214882 -0.0065384)
(14.0538 -0.022202 -0.00645898)
(13.9984 0.000579508 0.000927399)
(14.009 0.0155448 0.0113084)
(14.0439 0.0320387 0.0220704)
(14.1008 0.0469898 0.031031)
(14.1735 0.05791 0.0372701)
(14.2529 0.0630454 0.040321)
(14.3293 0.06197 0.0402569)
(14.3946 0.0557024 0.0376157)
(14.4438 0.0460866 0.0331875)
(14.4757 0.0349837 0.0277613)
(14.4913 0.0238767 0.021993)
(14.4929 0.0137514 0.016366)
(14.4835 0.0051251 0.0111951)
(14.4659 -0.00182828 0.00665566)
(14.4426 -0.00715306 0.00282143)
(14.4159 -0.0110127 -0.000301826)
(14.3874 -0.0136197 -0.00275188)
(14.3584 -0.0151992 -0.0045943)
(14.3298 -0.0159718 -0.00591165)
(14.3025 -0.016142 -0.00679458)
(14.2768 -0.0158874 -0.00733317)
(14.253 -0.0153547 -0.00761063)
(14.231 -0.0146565 -0.00769921)
(14.2108 -0.0138795 -0.00766038)
(14.1924 -0.0130896 -0.00754326)
(14.1755 -0.0123304 -0.00739055)
(14.1602 -0.0116998 -0.00722904)
(14.145 -0.0111546 -0.00710124)
(14.1335 -0.0111712 -0.00698357)
(14.111 -0.012234 -0.00697278)
(13.9144 0.0599912 0.303568)
(13.5037 0.203305 1.02959)
(12.634 0.222278 2.04937)
(10.7499 0.267151 4.53643)
(1.33655 -0.0269264 -0.800258)
(8.29515 -0.159041 -2.7259)
(9.25175 -0.101664 -1.76444)
(10.0506 -0.0715223 -1.23163)
(10.7511 -0.0527712 -0.905946)
(11.3577 -0.0402936 -0.692418)
(11.8789 -0.0316147 -0.544505)
(12.3221 -0.0249334 -0.429574)
(12.6881 -0.0189046 -0.324204)
(12.971 -0.0129028 -0.221772)
(13.1853 -0.0132813 -0.140924)
(13.345 -0.0182453 -0.101101)
(13.4355 -0.0148671 -0.0779981)
(13.506 -0.0121792 -0.0623833)
(13.5638 -0.0100846 -0.0511448)
(13.6118 -0.00845716 -0.0427009)
(13.6523 -0.00716798 -0.0361139)
(13.6867 -0.00613058 -0.0308429)
(13.7163 -0.00528886 -0.0265548)