/*--------------------------------*- C++ -*----------------------------------*\
  =========                 |
  \\      /  F ield         | OpenFOAM: The Open Source CFD Toolbox
   \\    /   O peration     | Website:  https://openfoam.org
    \\  /    A nd           | Version:  7
     \\/     M anipulation  |
\*---------------------------------------------------------------------------*/
FoamFile
{
    version     2.0;
    format      ascii;
    class       volScalarField;
    location    "300";
    object      k;
}
// * * * * * * * * * * * * * * * * * * * * * * * * * * * * * * * * * * * * * //

dimensions      [0 2 -2 0 0 0 0];

internalField   nonuniform List<scalar> 
27370
(
348.946
348.705
350.049
309.661
17.8504
34.8409
50.7446
65.4407
77.0464
85.0775
90.033
92.6458
93.5528
93.2044
91.7081
89.5446
87.1145
84.5258
81.855
79.1558
76.4663
73.8156
71.2316
68.7785
66.767
348.686
347.41
348.33
324.555
21.4867
46.9875
65.2595
77.7881
86.2319
91.5937
94.6091
95.8749
95.8567
95.0772
93.3446
90.7582
88.0182
85.1968
82.3478
79.5106
76.7136
73.9786
71.3284
68.823
66.773
348.21
345.455
344.801
335.397
2.50813
57.7823
84.1465
96.1095
101.672
104.06
104.662
104.131
102.814
100.924
98.8268
96.1243
92.8507
89.5867
86.3616
83.1992
80.1171
77.1278
74.2413
71.4712
68.8705
66.7495
347.639
343.226
338.311
332.285
298.712
20.6565
118.775
128.771
130.318
128.972
126.163
122.635
118.807
114.888
110.973
107.097
103.365
99.3378
95.298
91.4278
87.7234
84.1814
80.7985
77.5701
74.493
71.5709
68.8481
66.6333
347.066
341.126
334.434
328.228
311.833
279.881
232.691
211.546
193.311
178.493
166.373
156.086
147.047
138.932
131.569
124.848
118.684
113.002
107.715
102.336
97.5861
93.1349
88.96
85.0381
81.3485
77.8731
74.5976
71.5154
68.6617
66.3411
346.555
339.35
331.227
320.658
306.057
290.117
265.115
239.04
218.888
201.083
185.559
172
160.068
149.481
140.021
131.52
123.844
116.885
110.56
104.69
99.3198
94.3692
89.786
85.53
81.568
77.8705
74.4142
71.185
68.2082
65.7798
346.122
337.879
328.637
317.514
303.615
286.339
266.96
246.75
227.584
209.923
193.922
179.546
166.662
155.107
144.725
135.373
126.928
119.283
112.343
105.994
100.19
94.8691
89.9746
85.4591
81.282
77.408
73.808
70.4614
67.3835
64.8527
345.762
336.616
326.382
314.556
300.682
284.597
266.916
248.528
230.475
213.357
197.472
182.918
169.681
157.687
146.836
137.019
128.132
120.076
112.761
106.096
100.012
94.4481
89.3465
84.6574
80.3369
76.3462
72.6524
69.2306
66.0847
63.462
345.457
335.441
324.168
311.429
297.099
281.237
264.269
246.798
229.52
212.936
197.35
182.907
169.643
157.531
146.512
136.504
127.419
119.171
111.676
104.853
98.6308
92.948
87.7467
82.9763
78.5918
74.5527
70.8243
67.3784
64.2075
61.5068
345.19
334.21
321.659
307.663
292.421
276.17
259.277
242.19
225.381
209.232
193.994
179.809
166.719
154.712
143.751
133.771
124.695
116.445
108.943
102.114
95.8912
90.2119
85.0197
80.2643
75.9008
71.8884
68.1919
64.7809
61.6385
58.8768
344.944
332.713
318.37
302.564
285.895
268.776
251.543
234.51
217.983
202.214
187.376
173.571
160.818
149.109
138.407
128.653
119.776
111.703
104.362
97.6803
91.5946
86.0447
80.9755
76.3379
72.0879
68.1853
64.5955
61.2864
58.2402
55.4389
344.702
330.553
313.402
294.906
276.197
257.812
239.997
222.89
206.62
191.294
176.986
163.73
151.515
140.32
130.096
120.782
112.309
104.607
97.605
91.2373
85.4417
80.1609
75.3422
70.9383
66.9074
63.2099
59.8145
56.684
53.8223
51.0123
344.434
326.755
304.749
282.205
260.797
240.935
222.57
205.546
189.763
175.146
161.658
149.254
137.887
127.505
118.047
109.446
101.633
94.5388
88.098
82.2471
76.9279
72.0867
67.6742
63.6463
59.9643
56.5895
53.4986
50.637
48.0809
45.3145
343.977
318.197
287.102
258.754
234.37
213.442
195.166
178.929
164.324
151.068
139.005
128.02
118.023
108.935
100.685
93.2037
86.4231
80.2792
74.7111
69.6616
65.0782
60.9133
57.1225
53.6668
50.5131
47.6218
44.9911
42.514
40.4353
37.8192
341.91
291.587
243.969
209.577
184.12
164.495
148.513
134.998
123.237
112.795
103.432
94.9915
87.3718
80.4725
74.2315
68.5907
63.4947
58.8909
54.7299
50.9661
47.557
44.4662
41.6576
39.1012
36.7755
34.6312
32.727
30.8188
29.4704
27.2673
317.06
174.861
118.147
91.1384
75.6276
65.5168
58.128
52.2843
47.4102
43.1968
39.4813
36.1684
33.1981
30.5368
28.1404
25.9791
24.0287
22.2683
20.6786
19.2413
17.9419
16.7616
15.6969
14.7143
13.8487
13.0015
12.3293
11.5438
11.0577
10.2142
348.687
347.413
348.339
324.454
20.8338
46.5682
65.0636
77.7007
86.1912
91.5734
94.598
95.8685
95.8528
95.0744
93.3422
90.7564
88.0168
85.1958
82.3469
79.5099
76.713
73.9781
71.3279
68.8226
66.7727
348.445
346.36
346.741
330.719
31.3503
61.302
78.2996
88.132
93.942
97.1867
98.6343
98.7781
97.9586
96.7913
94.8251
91.8722
88.8536
85.8189
82.8049
79.8392
76.9415
74.1273
71.4145
68.8595
66.7728
348.005
344.659
343.543
333.588
104.617
17.1616
79.0245
97.8506
105.764
108.813
109.42
108.696
107.158
105.085
102.627
100.243
97.3608
93.792
90.2993
86.8953
83.5921
80.3989
77.3214
74.3647
71.5386
68.8932
66.7386
347.479
342.633
337.199
331.665
306.467
92.4892
60.1308
138.928
140.678
138.391
134.817
130.582
126.055
121.477
116.976
112.603
108.364
104.45
100.297
96.0377
91.9934
88.1493
84.495
81.0214
77.7199
74.5839
71.6141
68.8527
66.6082
346.95
340.727
333.755
327.598
312.056
283.484
243.768
220.103
199.901
183.791
170.641
159.534
149.848
141.218
133.435
126.366
119.912
113.988
108.499
103.035
98.1328
93.556
89.2772
85.2696
81.5095
77.9763
74.6533
71.5322
68.6463
66.3004
346.473
339.082
330.775
320.146
305.818
290.661
266.839
241.433
221.42
203.536
187.817
174.015
161.831
151.001
141.317
132.612
124.754
117.633
111.167
105.175
99.7013
94.6627
90.0047
85.6858
81.6708
77.929
74.4358
71.1758
68.1732
65.7237
346.066
337.698
328.337
317.163
303.36
286.421
267.48
247.673
228.726
211.143
195.127
180.68
167.696
156.028
145.529
136.065
127.514
119.77
112.741
106.313
100.439
95.0579
90.1107
85.5497
81.3338
77.4268
73.7989
70.4289
67.3309
64.7828
345.723
336.491
326.176
314.306
300.465
284.526
267.053
248.881
230.987
213.96
198.108
183.547
170.276
158.231
147.321
137.441
128.492
120.377
113.006
106.289
100.159
94.5539
89.4159
84.6949
80.3467
76.3321
72.6179
69.1787
66.0175
63.3809
345.43
335.354
324.02
311.242
296.915
281.114
264.248
246.898
229.721
213.207
197.66
183.231
169.961
157.83
146.782
136.741
127.621
119.338
111.809
104.953
98.7011
92.991
87.7652
82.9729
78.5692
74.5133
70.7703
67.3119
64.1298
61.418
345.172
334.147
321.55
307.516
292.26
276.03
259.186
242.163
225.417
209.317
194.113
179.947
166.862
154.851
143.879
133.883
124.789
116.519
108.996
102.148
95.9064
90.2097
85.0014
80.2315
75.8551
71.8313
68.1247
64.705
61.5549
58.7844
344.931
332.667
318.286
302.444
285.751
268.631
251.416
234.416
217.927
202.192
187.38
173.593
160.851
149.145
138.442
128.682
119.797
111.714
104.362
97.6696
91.5729
86.0125
80.9334
76.2866
72.0284
68.1182
64.5218
61.2068
58.1555
55.3475
344.694
330.52
313.336
294.805
276.067
257.668
239.854
222.761
206.513
191.21
176.922
163.682
151.481
140.293
130.073
120.76
112.285
104.579
97.5733
91.2004
85.3991
80.1125
75.2881
70.8788
66.8428
63.1407
59.7411
56.6067
53.742
50.9268
344.429
326.731
304.697
282.118
260.678
240.794
222.421
205.4
189.629
175.029
161.558
149.169
137.815
127.444
117.993
109.397
101.586
94.4935
88.0522
82.1999
76.8784
72.0346
67.6193
63.5884
59.9035
56.5259
53.4324
50.5683
48.0107
45.2399
343.974
318.181
287.06
258.678
234.261
213.308
195.019
178.78
164.183
150.939
138.893
127.923
117.939
108.864
100.624
93.1493
86.3738
80.2333
74.6671
69.6184
65.0348
60.8691
57.0771
53.6199
50.4646
47.5714
44.9393
42.4599
40.3812
37.7609
341.909
291.577
243.934
209.512
184.025
164.376
148.382
134.865
123.111
112.681
103.332
94.9064
87.3001
80.4133
74.1827
68.55
63.4601
58.8605
54.7023
50.94
47.5316
44.4407
41.6315
39.0742
36.7475
34.6017
32.6967
30.7861
29.4387
27.231
317.06
174.856
118.127
91.1046
75.58
65.4597
58.0659
52.2222
47.352
43.1448
39.4368
36.1315
33.1683
30.5125
28.121
25.9636
24.0164
22.2583
20.6702
19.2339
17.9351
16.755
15.6903
14.7074
13.8417
12.9936
12.3218
11.534
11.0503
10.2038
348.212
345.462
344.818
335.454
3.32795
57.5783
83.8029
95.8821
101.542
103.986
104.618
104.104
102.797
100.913
98.8188
96.1182
92.846
89.583
86.3587
83.1967
80.1151
77.1261
74.2398
71.4699
68.8694
66.7485
348.006
344.662
343.552
333.583
95.1641
15.5831
78.8879
97.6878
105.648
108.741
109.377
108.669
107.142
105.074
102.62
100.238
97.3571
93.7891
90.297
86.8935
83.5906
80.3976
77.3203
74.3637
71.5378
68.8925
66.7379
347.642
343.275
341.031
333.005
292.458
108.803
122.609
125.911
125.657
123.627
120.686
117.311
113.747
110.112
106.453
103.118
99.4774
95.4138
91.5295
87.8147
84.264
80.8733
77.6381
74.5551
71.6277
68.9008
66.684
347.194
341.601
335.324
329.687
311.065
263.349
198.032
183.023
173.798
163.609
154.852
147.158
140.108
133.535
127.391
121.652
116.287
111.251
106.668
101.939
97.3124
92.9675
88.8786
85.0252
81.3901
77.9574
74.715
71.6589
68.8271
66.5277
346.741
340.008
332.452
322.308
311.714
288.442
259.228
232.831
211.199
193.45
178.722
166.231
155.383
145.787
137.197
129.449
122.419
116.009
110.114
104.236
99.0724
94.2754
89.8128
85.6524
81.7661
78.1288
74.7201
71.5284
68.5841
66.1911
346.325
338.594
329.942
319.251
305.151
286.964
266.196
245.121
225.385
207.489
191.537
177.388
164.814
153.593
143.537
134.49
126.321
118.922
112.207
106.004
100.349
95.154
90.3632
85.9316
81.8214
77.9996
74.4398
71.1243
68.0748
65.5859
345.962
337.363
327.778
316.509
302.826
286.432
268.116
249.082
230.543
213.136
197.132
182.59
169.451
157.599
146.906
137.249
128.514
120.6
113.414
106.846
100.85
95.36
90.3186
85.6764
81.3909
77.4247
73.7467
70.3343
67.1999
64.6195
345.651
336.258
325.784
313.824
300.023
284.315
267.178
249.391
231.784
214.928
199.15
184.59
171.268
159.142
148.133
138.147
129.091
120.871
113.402
106.595
100.383
94.7047
89.502
84.7241
80.3266
76.2694
72.5187
69.0484
65.86
63.1973
345.38
335.187
323.735
310.872
296.536
280.83
264.132
246.989
229.992
213.609
198.137
183.739
170.465
158.304
147.21
137.113
127.934
119.59
112.001
105.089
98.7844
93.0265
87.7576
82.9269
78.4893
74.4038
70.6353
67.1549
63.9533
61.2208
345.137
334.026
321.333
307.22
291.926
275.721
258.954
242.039
225.403
209.393
194.252
180.122
167.052
155.038
144.049
134.028
124.903
116.6
109.044
102.162
95.8886
90.1621
84.9264
80.1317
75.7331
71.6896
67.9659
64.5313
61.368
58.5815
344.907
332.578
318.117
302.198
285.452
268.317
251.126
234.178
217.752
202.077
187.314
173.562
160.841
149.145
138.442
128.676
119.78
111.682
104.312
97.6024
91.4881
85.9105
80.8152
76.1534
71.8815
67.9591
64.3519
61.0275
57.968
55.1477
344.677
330.454
313.202
294.598
275.796
257.358
239.537
222.463
206.249
190.985
176.735
163.527
151.35
140.179
129.97
120.661
112.187
104.478
97.4664
91.0864
85.2772
79.9823
75.1495
70.7321
66.6885
62.9794
59.5735
56.4333
53.5643
50.74
344.418
326.684
304.59
281.94
260.431
240.496
222.097
205.076
189.322
174.749
161.308
148.949
137.622
127.272
117.838
109.253
101.451
94.3621
87.9227
82.0702
76.7471
71.9007
67.4821
63.4476
59.759
56.3777
53.2809
50.4134
47.854
45.0766
343.969
318.149
286.976
258.524
234.037
213.028
194.706
178.459
163.87
150.648
138.629
127.688
117.732
108.681
100.46
93.002
86.2387
80.1069
74.5467
69.5017
64.9201
60.755
56.9625
53.5042
50.3474
47.4523
44.8185
42.3367
40.2578
37.6326
341.907
291.557
243.867
209.383
183.833
164.136
148.111
134.586
122.84
112.429
103.106
94.708
87.1273
80.265
74.0552
68.4395
63.3627
58.773
54.6218
50.8644
47.4589
44.3694
41.5607
39.003
36.6754
34.5283
32.6223
30.7092
29.3621
27.1506
317.06
174.847
118.093
91.0423
75.4902
65.3497
57.9437
52.0975
47.2323
43.0352
39.3401
36.0485
33.0984
30.4532
28.0712
25.9218
23.9811
22.2279
20.6436
19.21
17.9129
16.7338
15.6697
14.6868
13.8211
12.9722
12.3003
11.5114
11.0273
10.1799
347.64
343.234
338.332
332.32
298.389
20.3795
118.484
128.558
130.125
128.819
126.054
122.561
118.757
114.853
110.949
107.08
103.352
99.3281
95.2903
91.4215
87.7182
84.1771
80.7948
77.567
74.4903
71.5685
68.8461
66.6314
347.48
342.639
337.213
331.69
306.413
93.9026
59.2474
138.636
140.509
138.256
134.71
130.503
126
121.439
116.949
112.583
108.35
104.44
100.289
96.0317
91.9885
88.1452
84.4915
81.0185
77.7174
74.5817
71.6122
68.851
66.6067
347.195
341.604
335.33
329.699
311.067
263.132
198.014
182.916
173.717
163.549
154.803
147.116
140.076
133.511
127.373
121.639
116.277
111.244
106.663
101.935
97.3092
92.9648
88.8763
85.0233
81.3884
77.956
74.7137
71.6578
68.8261
66.5268
346.842
340.364
333.098
323.122
312.026
286.487
252.592
223.919
202.852
186.055
172.471
161.109
151.259
142.509
134.627
127.471
120.939
114.943
109.429
103.856
98.798
94.093
89.706
85.6074
81.771
78.1736
74.797
71.6314
68.709
66.3363
346.477
339.12
330.892
320.505
306.164
291.182
267.384
243.492
222.104
203.591
187.694
173.955
161.935
151.297
141.795
133.254
125.538
118.536
112.137
105.632
100.152
95.0869
90.3979
86.0479
82.0037
78.2354
74.7184
71.4373
68.4178
65.9619
346.134
337.967
328.874
317.99
304.296
287.326
268.168
248.389
229.332
211.661
195.609
181.166
168.208
156.573
146.106
136.669
128.138
120.41
113.4
106.942
101.065
95.6791
90.7235
86.1512
81.9217
77.9998
74.3561
70.9704
67.861
65.3194
345.826
336.919
327.03
315.595
302.047
286.2
268.651
250.388
232.375
215.244
199.321
184.719
171.431
159.382
148.471
138.593
129.642
121.524
114.15
107.413
101.265
95.6425
90.4846
85.7416
81.3695
77.3295
73.589
70.1239
66.9435
64.3198
345.554
335.938
325.241
313.132
299.348
283.875
267.126
249.769
232.512
215.888
200.227
185.693
172.332
160.122
149.004
138.897
129.715
121.372
113.786
106.869
100.558
94.7912
89.5094
84.662
80.204
76.0946
72.2994
68.791
65.569
62.8715
345.311
334.952
323.325
310.324
295.943
280.319
263.805
246.897
230.12
213.903
198.537
184.19
170.925
158.739
147.598
137.441
128.194
119.78
112.122
105.143
98.7772
92.9626
87.6425
82.7662
78.2883
74.1678
70.3692
66.8629
63.638
60.8783
345.087
333.85
321.014
306.769
291.396
275.189
258.493
241.698
225.19
209.293
194.236
180.16
167.117
155.108
144.108
134.063
124.908
116.57
108.977
102.059
95.7496
89.9898
84.7234
79.9009
75.4775
71.4122
67.6696
64.2188
61.0409
58.2335
344.872
332.445
317.863
301.818
284.971
267.786
250.601
233.701
217.344
201.742
187.042
173.339
160.654
148.978
138.284
128.518
119.614
111.504
104.12
97.3939
91.2627
85.6686
80.5573
75.8808
71.5954
67.661
64.0434
60.7099
57.6428
54.8072
344.654
330.354
312.997
294.271
275.357
256.841
238.986
221.917
205.735
190.517
176.314
163.15
151.011
139.87
129.681
120.387
111.92
104.215
97.2031
90.8207
85.0073
79.7073
74.8689
70.4458
66.3967
62.6825
59.2721
56.1279
53.2566
50.4215
344.403
326.612
304.425
281.658
260.032
240.003
221.549
204.509
188.765
174.221
160.819
148.5
137.212
126.896
117.49
108.929
101.143
94.0681
87.6381
81.7918
76.4727
71.6284
67.2108
63.1764
59.4874
56.1053
53.0078
50.139
47.581
44.7965
343.961
318.1
286.844
258.282
233.68
212.575
194.189
177.915
163.326
150.126
138.142
127.239
117.323
108.308
100.12
92.6893
85.9486
79.8349
74.2889
69.2547
64.6811
60.5218
56.7336
53.2781
50.1233
47.2294
44.5968
42.1145
40.0388
37.4088
341.904
291.527
243.766
209.188
183.538
163.758
147.678
134.13
122.385
111.995
102.704
94.342
86.7975
79.9712
73.7934
68.205
63.1507
58.5792
54.4422
50.6955
47.2981
44.2146
41.4101
38.8552
36.5297
34.3832
32.4789
30.5641
29.2208
27.0047
317.059
174.834
118.043
90.9518
75.358
65.1847
57.7567
51.9022
47.0396
42.8535
39.1743
35.9007
32.9684
30.3386
27.9707
25.8337
23.9033
22.1587
20.581
19.1526
17.8595
16.6833
15.6213
14.6396
13.7752
12.926
12.2561
11.4638
10.9866
10.1305
347.068
341.133
334.448
328.253
311.856
279.758
232.187
211.288
193.15
178.369
166.267
155.996
146.973
138.875
131.525
124.814
118.658
112.982
107.699
102.324
97.5757
93.1262
88.9527
85.0319
81.3432
77.8684
74.5935
71.5118
68.6585
66.3381
346.951
340.732
333.766
327.619
312.083
284.227
243.477
219.738
199.773
183.697
170.559
159.464
149.79
141.171
133.398
126.337
119.889
113.97
108.486
103.024
98.1239
93.5486
89.2709
85.2642
81.5049
77.9722
74.6497
71.529
68.6435
66.2978
346.742
340.011
332.459
322.32
311.731
288.416
259.174
232.778
211.149
193.403
178.678
166.191
155.349
145.759
137.174
129.43
122.404
115.997
110.104
104.229
99.0661
94.2701
89.8082
85.6485
81.7627
78.1258
74.7174
71.5261
68.582
66.1891
346.478
339.121
330.894
320.509
306.168
291.182
267.376
243.481
222.091
203.575
187.679
173.94
161.922
151.285
141.786
133.246
125.531
118.53
112.133
105.628
100.149
95.0842
90.3955
86.0459
82.0019
78.2339
74.717
71.436
68.4167
65.9608
346.197
338.187
329.273
318.537
304.908
292.046
271.724
250.449
230.208
211.807
195.414
180.888
167.993
156.496
146.196
136.93
128.565
120.989
114.102
106.882
101.089
95.7515
90.8315
86.2871
82.0802
78.1761
74.5463
71.1715
68.0722
65.5444
345.924
337.278
327.695
316.529
303.089
287.044
269.206
250.625
232.357
215.07
199.081
184.482
171.242
159.265
148.436
138.64
129.769
121.725
114.426
107.718
101.62
96.0397
90.9162
86.1999
81.8482
77.8231
74.093
70.635
67.4627
64.8606
345.671
336.408
326.156
314.479
300.981
285.561
268.69
251.13
233.665
216.872
201.097
186.498
173.112
160.905
149.804
139.723
130.569
122.254
114.696
107.793
101.496
95.7403
90.4656
85.6209
81.1614
77.047
73.2436
69.7255
66.498
63.8249
345.44
335.555
324.574
312.246
298.406
283.098
266.685
249.725
232.82
216.451
200.939
186.466
173.096
160.827
149.619
139.405
130.11
121.652
113.954
106.934
100.528
94.6743
89.3155
84.4004
79.8835
75.7237
71.8856
68.3409
65.0858
62.349
345.228
334.66
322.801
309.592
295.098
279.495
263.122
246.422
229.857
213.817
198.576
184.301
171.065
158.874
147.703
137.5
128.198
119.724
112.005
104.967
98.5453
92.6795
87.3129
82.3952
77.8812
73.7294
69.9041
66.3753
63.1298
60.3396
345.026
333.625
320.591
306.148
290.627
274.358
257.688
240.983
224.592
208.809
193.847
179.839
166.842
154.855
143.859
133.806
124.634
116.273
108.654
101.709
95.3728
89.5875
84.2974
79.4535
75.0111
70.9295
67.1732
63.7109
60.5225
57.6928
344.828
332.27
317.515
301.279
284.265
266.967
249.739
232.854
216.551
201.017
186.388
172.745
160.109
148.471
137.802
128.051
119.155
111.048
103.662
96.9309
90.7935
85.1923
80.074
75.3907
71.0992
67.1597
63.5379
60.2012
57.132
54.2811
344.622
330.219
312.709
293.8
274.707
256.05
238.11
221.011
204.841
189.662
175.51
162.399
150.311
139.215
129.064
119.8
111.358
103.671
96.6739
90.302
84.4963
79.2021
74.368
69.9483
65.9021
62.1903
58.7826
55.6408
52.7736
49.9293
344.383
326.511
304.189
281.247
259.44
239.257
220.696
203.602
187.847
173.323
159.96
147.69
136.454
126.187
116.827
108.305
100.554
93.507
87.1008
81.2743
75.9715
71.1408
66.7344
62.7095
59.0286
55.6536
52.5628
49.6991
47.1494
44.3605
343.949
318.031
286.657
257.933
233.158
211.901
193.405
177.069
162.46
149.274
137.324
126.468
116.602
107.638
99.4986
92.1111
85.4085
79.3278
73.8097
68.7991
64.2453
60.1025
56.3282
52.8843
49.7395
46.854
44.2296
41.7522
39.6868
37.055
341.901
291.486
243.626
208.915
183.122
163.216
147.045
133.446
121.686
111.309
102.05
93.7307
86.2317
79.4529
73.3198
67.7716
62.7525
58.211
54.0992
50.3736
46.9935
43.9243
41.1315
38.5862
36.269
34.1287
32.2316
30.3179
28.9879
26.7625
317.059
174.817
117.98
90.8339
75.1819
64.9599
57.4961
51.6228
46.7563
42.5781
38.9147
35.6611
32.7503
30.14
27.7911
25.6714
23.7563
22.0247
20.4581
19.0389
17.7533
16.5832
15.5263
14.5484
13.6877
12.8399
12.1771
11.3667
10.9716
9.98931
346.556
339.355
331.238
320.674
306.072
290.102
265.059
238.986
218.831
201.025
185.502
171.946
160.02
149.439
139.985
131.49
123.819
116.864
110.543
104.675
99.3073
94.3585
89.7767
85.522
81.5609
77.8643
74.4088
71.1801
68.2038
65.7758
346.475
339.086
330.784
320.16
305.833
290.661
266.79
241.398
221.377
203.49
187.771
173.971
161.791
150.966
141.286
132.586
124.732
117.615
111.151
105.162
99.6902
94.653
89.9964
85.6786
81.6644
77.9233
74.4308
71.1713
68.1692
65.72
346.326
338.597
329.947
319.26
305.16
286.962
266.183
245.101
225.359
207.461
191.507
177.358
164.786
153.568
143.515
134.471
126.305
118.908
112.195
105.994
100.34
95.1464
90.3565
85.9257
81.8162
77.995
74.4357
71.1206
68.0715
65.5828
346.134
337.969
328.877
317.995
304.3
287.326
268.162
248.38
229.32
211.646
195.592
181.15
168.192
156.559
146.093
136.657
128.128
120.402
113.392
106.935
101.059
95.6739
90.719
86.1472
81.9182
77.9966
74.3532
70.9679
67.8587
65.3172
345.924
337.278
327.696
316.531
303.09
287.044
269.205
250.622
232.352
215.064
199.074
184.476
171.235
159.258
148.43
138.635
129.764
121.721
114.422
107.715
101.617
96.0372
90.9139
86.1979
81.8464
77.8215
74.0915
70.6337
67.4615
64.8595
345.713
336.571
326.467
314.933
301.525
286.098
269.168
251.525
233.977
217.123
201.31
186.695
173.306
161.106
150.018
139.951
130.812
122.512
114.969
108.072
101.784
96.0354
90.7661
85.9248
81.467
77.3526
73.5482
70.0281
66.8001
64.1357
345.51
335.859
325.188
313.179
299.591
284.412
268.019
251.011
234.026
217.573
201.988
187.456
174.044
161.745
150.515
140.285
130.976
122.507
114.799
107.765
101.346
95.4801
90.1081
85.1789
80.647
76.4715
72.6171
69.0563
65.7895
63.0656
345.318
335.124
323.794
311.156
297.147
281.875
265.67
249.011
232.405
216.278
200.932
186.55
173.212
160.928
149.672
139.391
130.017
121.477
113.696
106.599
100.122
94.2025
88.7851
83.8187
79.2576
75.0605
71.1915
67.6212
64.3417
61.565
345.134
334.317
322.157
308.653
293.941
278.253
261.925
245.359
228.963
213.082
197.971
183.787
170.608
158.443
147.273
137.056
127.729
119.223
111.469
104.396
97.9408
92.0435
86.6483
81.7055
77.17
73.0004
69.1608
65.6208
62.364
59.544
344.955
333.349
320.05
305.321
289.553
273.124
256.397
239.717
223.403
207.717
192.85
178.924
165.992
154.054
143.09
133.057
123.895
115.537
107.917
100.968
94.6264
88.835
83.5392
78.6904
74.2442
70.1601
66.4027
62.9405
59.7522
56.902
344.775
332.048
317.054
300.542
283.263
265.76
248.409
231.48
215.192
199.709
185.147
171.575
159.006
147.428
136.81
127.101
118.24
110.16
102.796
96.0833
89.9608
84.3723
79.265
74.5916
70.3094
66.3788
62.7659
59.4379
56.3778
53.515
344.583
330.042
312.318
293.141
273.776
254.888
236.786
219.599
203.405
188.246
174.142
161.092
149.072
138.042
127.954
118.746
110.354
102.71
95.7508
89.4119
83.6351
78.3661
73.5544
69.1547
65.1267
61.4316
58.0395
54.9118
52.0605
49.212
344.357
326.376
303.863
280.667
258.59
238.167
219.427
202.224
186.421
171.901
158.573
146.359
135.189
124.992
115.7
107.242
99.5491
92.555
86.1957
80.4107
75.1445
70.3461
65.9684
61.969
58.3111
54.9567
51.885
49.0377
46.5077
43.7214
343.934
317.937
286.396
257.441
232.414
210.93
192.259
175.813
161.151
147.961
136.041
125.238
115.436
106.541
98.4693
91.147
84.5046
78.4784
73.009
68.0415
63.5258
59.4166
55.6718
52.2541
49.1326
46.2675
43.6625
41.2004
39.1541
36.5314
341.895
291.432
243.437
208.543
182.547
162.459
146.146
132.459
120.658
110.28
101.049
92.7749
85.3307
78.6125
72.5397
67.0485
62.0816
57.5867
53.5162
49.8267
46.4781
43.4363
40.6674
38.1428
35.8441
33.7191
31.8374
29.9358
28.6139
26.411
317.058
174.798
117.902
90.6852
74.9547
64.663
57.1444
51.2369
46.3551
42.1784
38.5279
35.2947
32.4081
29.8219
27.4972
25.4008
23.5072
21.795
20.2454
18.841
17.5684
16.4093
15.3621
14.3923
13.5389
12.6981
12.0356
11.2526
10.7735
9.93251
346.123
337.882
328.644
317.524
303.623
286.335
266.943
246.722
227.549
209.884
193.881
179.505
166.624
155.072
144.693
135.345
126.903
119.261
112.324
105.977
100.176
94.8567
89.9637
85.4494
81.2734
77.4004
73.8011
70.4553
67.3779
64.8475
346.067
337.701
328.343
317.172
303.367
286.419
267.467
247.652
228.697
211.11
195.092
180.645
167.662
155.997
145.501
136.04
127.492
119.751
112.724
106.298
100.426
95.0465
90.1006
85.5408
81.3259
77.4197
73.7926
70.4232
67.3257
64.7779
345.963
337.365
327.782
316.515
302.831
286.431
268.108
249.068
230.523
213.113
197.106
182.564
169.426
157.575
146.883
137.229
128.496
120.584
113.4
106.834
100.839
95.3504
90.3101
85.6688
81.3841
77.4186
73.7412
70.3294
67.1954
64.6153
345.826
336.92
327.033
315.599
302.05
286.2
268.646
250.379
232.362
215.229
199.305
184.702
171.414
159.365
148.456
138.578
129.629
121.512
114.14
107.404
101.257
95.6352
90.4781
85.7357
81.3642
77.3247
73.5847
70.12
66.9399
64.3165
345.671
336.409
326.157
314.481
300.983
285.561
268.688
251.126
233.658
216.864
201.087
186.488
173.103
160.895
149.795
139.714
130.561
122.247
114.689
107.787
101.491
95.7356
90.4613
85.617
81.1579
77.0438
73.2407
69.7228
66.4956
63.8226
345.51
335.859
325.189
313.18
299.591
284.411
268.018
251.009
234.023
217.57
201.984
187.453
174.04
161.741
150.511
140.281
130.972
122.504
114.796
107.762
101.344
95.4779
90.106
85.177
80.6453
76.4699
72.6157
69.055
65.7883
63.0645
345.349
335.276
324.116
311.659
297.806
282.637
266.483
249.834
233.211
217.054
201.674
187.257
173.887
161.576
150.294
139.99
130.595
122.036
114.238
107.123
100.628
94.6935
89.2609
84.2798
79.7045
75.4934
71.6109
68.0277
64.7382
61.9664
345.191
334.643
322.882
309.813
295.484
280.074
263.91
247.413
231.017
215.092
199.911
185.646
172.384
160.138
148.889
138.597
129.2
120.629
112.813
105.683
99.173
93.2244
87.7811
82.7928
78.2141
74.0037
70.1254
66.549
63.2616
60.4482
345.034
333.917
321.368
307.447
292.377
276.457
260.039
243.499
227.2
211.445
196.457
182.382
169.29
157.192
146.069
135.883
126.576
118.082
110.335
103.266
96.8127
90.9168
85.5232
80.5828
76.0509
71.8864
68.0534
64.5211
61.2697
58.424
344.876
333.014
319.358
304.223
288.072
271.35
254.447
237.701
221.403
205.783
191.006
177.175
164.334
152.477
141.585
131.612
122.501
114.187
106.603
99.6856
93.3722
87.6059
82.333
77.5055
73.0797
69.0153
65.2771
61.8338
58.6624
55.797
344.712
331.766
316.446
299.536
281.859
264.024
246.441
229.386
213.059
197.599
183.1
169.609
157.131
145.644
135.113
125.484
116.694
108.679
101.374
94.7128
88.6373
83.0911
78.0224
73.3844
69.1349
65.2348
61.6507
58.3495
55.3161
52.448
344.536
329.811
311.785
292.223
272.455
253.214
234.848
217.498
201.231
186.067
172.006
159.028
147.096
136.163
126.17
117.054
108.748
101.183
94.2959
88.0225
82.3051
77.0899
72.3271
67.972
63.9848
60.3272
56.97
53.8739
51.0562
48.2118
344.323
326.194
303.407
279.845
257.374
236.598
217.583
200.201
184.307
169.767
156.47
144.323
133.239
123.139
113.946
105.585
97.9848
91.0766
84.7963
79.0833
73.8825
69.1433
64.8193
60.8685
57.2549
53.9408
50.9065
48.0917
45.5988
42.8247
343.915
317.808
286.027
256.742
231.354
209.542
190.612
173.993
159.238
146.025
134.131
123.388
113.668
104.865
96.8897
89.662
83.1099
77.1678
71.7757
66.8786
62.4266
58.3748
54.6819
51.3107
48.2317
45.4043
42.8353
40.4018
38.3916
35.7865
341.888
291.357
243.177
208.026
181.748
161.401
144.882
131.057
119.182
108.786
99.5773
91.3545
83.9775
77.3371
71.3449
65.9328
61.0407
56.6151
52.6076
48.9751
45.6776
42.6814
39.9535
37.4651
35.1998
33.1029
31.2503
29.3681
28.0745
25.8892
317.058
174.776
117.805
90.4945
74.6576
64.2682
56.67
50.7082
45.7966
41.6123
37.9707
34.7579
31.8987
29.3422
27.0487
24.9832
23.1192
21.4344
19.91
18.5282
17.2759
16.1346
15.1038
14.1477
13.3079
12.4771
11.8265
11.0502
10.5814
9.74815
345.763
336.618
326.386
314.562
300.685
284.595
266.906
248.51
230.45
213.328
197.44
182.885
169.648
157.656
146.807
136.993
128.108
120.054
112.742
106.079
99.9966
94.4343
89.3342
84.6463
80.3269
76.3372
72.6443
69.2233
66.0779
63.4556
345.724
336.494
326.179
314.311
300.469
284.524
267.044
248.865
230.966
213.934
198.08
183.517
170.246
158.203
147.294
137.417
128.47
120.357
112.988
106.273
100.145
94.5411
89.4044
84.6845
80.3374
76.3237
72.6103
69.1717
66.0112
63.3749
345.651
336.259
325.787
313.828
300.026
284.313
267.172
249.379
231.767
214.908
199.128
184.566
171.245
159.119
148.111
138.127
129.072
120.854
113.387
106.581
100.371
94.6936
89.4919
84.715
80.3183
76.2619
72.512
69.0422
65.8543
63.192
345.554
335.939
325.243
313.134
299.349
283.874
267.122
249.761
232.501
215.874
200.211
185.676
172.315
160.105
148.987
138.881
129.701
121.359
113.774
106.858
100.549
94.7822
89.5012
84.6546
80.1972
76.0885
72.2938
68.7859
65.5643
62.8671
345.44
335.556
324.576
312.247
298.407
283.098
266.682
249.72
232.813
216.442
200.929
186.454
173.084
160.816
149.608
139.395
130.1
121.643
113.945
106.926
100.521
94.6677
89.3094
84.3949
79.8785
75.719
71.8813
68.337
65.0823
62.3456
345.318
335.124
323.795
311.156
297.148
281.875
265.669
249.009
232.401
216.273
200.927
186.544
173.205
160.922
149.665
139.384
130.011
121.471
113.691
106.594
100.117
94.1983
88.7812
83.8151
79.2544
75.0575
71.1887
67.6186
64.3394
61.5627
345.191
334.643
322.882
309.813
295.484
280.074
263.91
247.412
231.015
215.09
199.908
185.644
172.381
160.135
148.886
138.594
129.197
120.626
112.811
105.68
99.1708
93.2225
87.7792
82.7911
78.2125
74.0022
70.124
66.5478
63.2604
60.4471
345.061
334.096
321.779
308.113
293.267
277.513
261.198
244.707
228.415
212.64
197.615
183.493
170.351
158.202
147.029
136.795
127.442
118.905
111.117
104.011
97.5218
91.5927
86.168
81.1985
76.6392
72.4491
68.5919
65.0371
61.766
58.9226
344.927
333.441
320.373
305.865
290.25
273.915
257.246
240.608
224.321
208.649
193.778
179.831
166.865
154.881
143.861
133.766
124.539
116.115
108.429
101.415
95.0119
89.1619
83.8111
78.9108
74.4171
70.2892
66.4918
62.9934
59.7715
56.9073
344.787
332.597
318.455
302.741
286.025
268.839
251.617
234.698
218.346
202.758
188.065
174.347
161.63
149.9
139.129
129.27
120.264
112.046
104.55
97.7116
91.4709
85.7713
80.56
75.7895
71.4168
67.4021
63.7109
60.3116
57.1813
54.309
344.639
331.404
315.623
298.144
279.89
261.56
243.612
226.334
209.907
194.443
180.006
166.615
154.259
142.905
132.508
123.008
114.342
106.441
99.2414
92.6779
86.6916
81.2274
76.234
71.6654
67.4801
63.6394
60.1106
56.8605
53.8777
51.0144
344.477
329.501
311.043
290.924
270.577
250.826
232.072
214.471
198.077
182.886
168.87
155.983
144.172
133.375
123.523
114.546
106.374
98.9355
92.1654
86.0004
80.3827
75.259
70.5802
66.3021
62.3857
58.7932
55.4964
52.4549
49.6945
46.8663
344.28
325.941
302.755
278.66
255.627
234.348
214.944
197.305
181.273
166.694
153.432
141.37
130.405
120.44
111.388
103.17
95.7064
88.9281
82.7691
77.1682
72.0705
67.4258
63.1881
59.3164
55.7752
52.527
49.5543
46.793
44.3601
41.612
343.888
317.624
285.49
255.723
229.823
207.551
188.261
171.401
156.512
143.26