/*--------------------------------*- C++ -*----------------------------------*\
  =========                 |
  \\      /  F ield         | OpenFOAM: The Open Source CFD Toolbox
   \\    /   O peration     | Website:  https://openfoam.org
    \\  /    A nd           | Version:  7
     \\/     M anipulation  |
\*---------------------------------------------------------------------------*/
FoamFile
{
    version     2.0;
    format      ascii;
    class       volScalarField;
    location    "300";
    object      nut;
}
// * * * * * * * * * * * * * * * * * * * * * * * * * * * * * * * * * * * * * //

dimensions      [0 2 -1 0 0 0 0];

internalField   nonuniform List<scalar> 
27370
(
624.393
316.344
132.688
37.8257
5.9327
10.6379
17.0007
25.4594
35.1124
45.0209
54.5111
63.1797
70.8221
78.2812
85.2309
88.8662
91.7003
93.8867
95.5083
96.6429
97.3627
97.7347
97.8298
97.7616
98.2474
625.827
382.175
159.493
54.2042
4.60833
11.6293
20.6111
30.3471
40.234
49.8116
58.7319
66.7695
73.8093
81.1022
88.0233
91.1266
93.5499
95.3784
96.6911
97.5622
98.0592
98.2439
98.1818
97.982
98.3606
627.492
513.335
231.377
87.151
0.171483
8.5871
20.5054
32.1954
42.9163
52.5514
61.1248
68.6826
75.2625
80.8992
87.1036
93.0828
95.2694
96.9028
98.0537
98.7899
99.1733
99.2597
99.0993
98.7473
98.3039
98.4828
630.062
542.452
348.682
165.08
54.2594
0.145829
15.3538
29.2294
41.7546
52.8029
62.2559
70.1971
76.8189
82.3254
86.8889
90.6371
95.0976
99.4756
100.461
101.059
101.327
101.314
101.065
100.617
100.006
99.2751
98.5103
98.4236
633.196
556.239
450.198
321.63
172.229
70.6567
39.5233
52.7426
62.0109
70.7399
78.3919
84.8442
90.0918
94.2295
97.4154
99.8197
101.594
102.86
103.695
106.009
105.693
105.171
104.484
103.659
102.72
101.689
100.585
99.4371
98.3153
97.9293
635.825
568.048
480.811
375.3
272.826
182.492
135.44
134.8
128.677
125.58
123.751
122.454
121.309
120.143
118.893
117.551
116.134
114.667
113.209
111.596
110
108.399
106.794
105.19
103.591
102
100.422
98.8711
97.398
96.7104
637.125
574.691
499.623
415.616
333.351
266.514
220.466
190.208
172.882
161.066
152.512
145.888
140.403
135.672
131.472
127.671
124.186
120.964
117.977
115.146
112.483
109.97
107.589
105.324
103.162
101.092
99.1079
97.2123
95.431
94.4678
636.426
574.083
504.46
432.515
364.056
305.567
260.334
226.968
203.423
186.089
172.742
161.882
153.062
145.578
139.103
133.411
128.346
123.798
119.684
115.921
112.462
109.27
106.309
103.55
100.971
98.5484
96.2662
94.1207
92.105
90.9149
632.91
564.135
493.768
427.344
367.623
316.553
275.015
242.254
216.949
197.171
181.438
168.534
157.614
148.509
140.677
133.847
127.825
122.467
117.666
113.331
109.392
105.795
102.494
99.4509
96.6342
94.0167
91.5731
89.299
87.1459
85.7943
625.108
541.627
465.372
400.897
347.274
302.903
266.532
236.986
213.137
193.778
177.917
164.789
153.414
143.805
135.59
128.415
122.096
116.488
111.479
106.974
102.901
99.1989
95.8183
92.7181
89.8623
87.2235
84.7697
82.5047
80.3271
78.8908
609.941
501.331
416.334
353.394
305.872
268.68
238.702
214.146
193.87
176.975
162.846
150.898
140.432
131.507
123.789
117.016
111.031
105.71
100.951
96.6715
92.8044
89.2939
86.0919
83.1612
80.4652
77.9822
75.6714
73.5601
71.4804
70.0429
580.256
435.324
344.257
286.663
247.48
218.701
196.107
177.657
162.246
149.102
137.95
128.136
119.652
112.249
105.74
99.9822
94.861
90.2837
86.1738
82.4671
79.1096
76.0573
73.2692
70.7172
68.365
66.2056
64.1809
62.3629
60.5074
59.1565
518.326
334.87
250.655
205.973
178.389
159.261
144.463
132.422
122.284
113.323
105.569
98.7132
92.6277
87.214
82.3829
78.0581
74.1742
70.6755
67.5135
64.6467
62.0379
59.6583
57.4757
55.4768
53.6219
51.9311
50.3142
48.909
47.405
46.2311
383.648
202.087
147.131
122.12
107.54
97.8447
90.0763
83.7973
78.355
73.4546
69.0458
65.0555
61.4415
58.1556
55.1686
52.4544
49.9872
47.7424
45.6963
43.8282
42.1165
40.5486
39.0989
37.7734
36.5234
35.4048
34.2913
33.3701
32.3448
31.4422
151.873
75.0633
58.1093
50.4825
45.833
42.7288
40.1613
37.9309
35.9176
34.055
32.3259
30.7181
29.2355
27.8403
26.5435
25.3464
24.2447
23.2321
22.3003
21.443
20.6502
19.921
19.2378
18.6168
18.0147
17.4905
16.947
16.4911
16.0496
15.5087
12.4958
9.27986
7.62791
6.69954
6.10288
5.6803
5.35041
5.07435
4.83204
4.61233
4.40951
4.22045
4.04345
3.87799
3.72272
3.5769
3.44002
3.31161
3.19122
3.07832
2.97256
2.87313
2.78037
2.69196
2.61154
2.53055
2.46366
2.38627
2.32618
2.25057
625.829
382.088
159.394
54.3078
4.3476
11.4213
20.4883
30.278
40.1939
49.788
58.7167
66.7595
73.8027
81.097
88.0179
91.1225
93.5467
95.3757
96.6889
97.5604
98.0577
98.2426
98.1807
97.9811
98.3598
626.909
444.973
188.57
64.5593
5.03778
14.3988
24.8281
35.2061
45.1166
54.34
62.7262
70.1811
76.6562
83.7846
90.6741
93.2972
95.3124
96.7919
97.8075
98.427
98.7121
98.7185
98.5067
98.1814
98.4572
628.538
536.669
261.728
104.013
1.2653
0.91109
12.8823
25.4283
37.1752
47.7309
57.0373
65.1699
72.2262
78.2963
83.4484
89.5069
95.465
97.2158
98.4785
99.3141
99.7827
99.9397
99.8348
99.513
99.0248
98.4666
98.551
631.061
546.767
400.451
189.796
78.9196
1.32273
1.81824
21.7042
35.3555
47.3853
57.8671
66.765
74.1786
80.299
85.3317
89.4538
92.7989
97.1435
101.484
102.102
102.387
102.388
102.147
101.704
101.091
100.341
99.4911
98.6255
98.4551
633.992
559.658
458.932
335.835
193.447
100.347
53.2266
64.61
71.0303
78.1905
84.6746
90.1755
94.6306
98.0997
100.713
102.622
103.962
104.849
105.351
107.614
107.006
106.233
105.329
104.318
103.22
102.053
100.833
99.5861
98.3791
97.9214
636.381
570.377
486.295
385.93
287.797
196.835
148.486
146.973
138.041
133.168
129.981
127.636
125.647
123.787
121.958
120.129
118.297
116.474
114.704
112.827
111.002
109.205
107.431
105.681
103.957
102.258
100.586
98.9554
97.4127
96.6655
637.473
576.124
502.839
421.517
341.902
276.421
230.016
198.644
179.748
166.842
157.168
149.767
143.642
138.383
133.745
129.576
125.779
122.289
119.073
116.044
113.211
110.551
108.043
105.667
103.408
101.255
99.1987
97.2406
95.4042
94.3929
636.621
574.874
506.184
435.581
368.537
310.933
265.825
232.123
207.898
189.889
175.98
164.566
155.317
147.472
140.693
134.745
129.461
124.725
120.448
116.544
112.962
109.663
106.609
103.769
101.119
98.6346
96.2985
94.1058
92.048
90.8199
633.003
564.508
494.576
428.781
369.742
319.191
277.869
245.081
219.546
199.467
183.421
170.264
159.071
149.74
141.718
134.723
128.558
123.075
118.166
113.734
109.711
106.041
102.675
99.5755
96.7085
94.0468
91.5642
89.2557
87.0714
85.6905
625.139
541.751
465.649
401.42
348.111
304.022
267.829
238.349
214.461
195.004
179.016
165.76
154.275
144.536
136.216
128.946
122.542
116.858
111.781
107.216
103.089
99.3389
95.9154
92.777
89.887
87.2177
84.7367
82.4477
80.2478
78.7893
609.941
501.329
416.353
353.478
306.067
269.006
239.143
214.667
194.424
177.527
163.366
151.382
140.873
131.894
124.127
117.306
111.277
105.914
101.117
96.8028
92.9035
89.3635
86.1348
83.1796
80.4615
77.9585
75.6295
73.5019
71.4069
69.9531
580.244
435.278
344.184
286.585
247.427
218.696
196.16
177.769
162.399
149.283
138.138
128.328
119.841
112.423
105.897
100.121
94.9802
90.3836
86.2547
82.5296
79.1547
76.0857
73.282
70.7154
68.3496
66.1777
64.1413
62.3129
60.4475
59.085
518.314
334.826
250.578
205.874
178.281
159.165
144.39
132.383
122.268
113.333
105.605
98.7608
92.6831
87.272
82.4399
78.1114
74.222
70.7164
67.5467
64.6717
62.0544
59.6665
57.4756
55.4687
53.606
51.908
50.284
48.8726
47.3626
46.1813
383.642
202.063
147.085
122.056
107.463
97.7659
90.0001
83.7349
78.3067
73.4216
69.0279
65.049
61.4433
58.1637
55.1806
52.4683
50.0013
47.7554
45.7071
43.8363
42.1212
40.5497
39.0962
37.7669
36.513
35.3908
34.2735
33.3489
32.3208
31.4133
151.872
75.0569
58.0946
50.4605
45.8032
42.6952
40.1269
37.8992
35.8903
34.0329
32.3093
30.7064
29.2273
27.8366
26.543
25.3481
24.2476
23.2354
22.3035
21.4457
20.652
19.9217
19.2373
18.615
18.0115
17.4859
16.9411
16.4835
16.0419
15.4975
12.4958
9.27972
7.62728
6.6983
6.10096
5.67782
5.34755
5.07133
4.82907
4.60955
4.40703
4.2183
4.04163
3.87645
3.72143
3.57584
3.43914
3.31086
3.19057
3.07773
2.972
2.87256
2.77979
2.69132
2.61088
2.52976
2.46297
2.38511
2.32559
2.24933
627.497
513.041
231.052
86.9146
0.184798
8.50822
20.3274
32.0241
42.7864
52.4603
61.0621
68.639
75.2317
80.877
87.0866
93.0688
95.2584
96.894
98.0465
98.7839
99.1683
99.2554
99.0956
98.7442
98.3011
98.4803
628.537
536.666
261.457
103.714
1.10325
0.819067
12.8296
25.3311
37.0776
47.6527
56.98
65.1294
72.1975
78.2759
83.4341
89.4957
95.4563
97.2089
98.4729
99.3095
99.7789
99.9365
99.832
99.5106
99.0228
98.4648
98.5494
630.476
545.394
343.253
156.029
46.4595
12.5184
26.4623
39.0288
50.173
59.8154
68.0127
74.918
80.7089
85.5427
89.5379
94.6365
99.7402
100.704
101.291
101.55
101.528
101.269
100.812
100.193
99.4541
98.6831
98.5914
632.83
554.457
444.105
268.463
141.379
40.4431
18.839
26.6627
39.8211
51.5813
61.8293
70.6179
77.9535
83.9403
88.7546
92.5906
95.6225
97.9851
101.51
105.072
105.031
104.747
104.259
103.6
102.8
101.885
100.877
99.8079
98.7554
98.429
635.369
565.502
472.779
356.277
233.981
143.135
101.238
90.9297
91.5743
94.9888
98.6819
101.966
104.599
106.547
107.872
108.675
109.058
109.113
108.892
110.484
109.342
108.108
106.806
105.453
104.063
102.645
101.211
99.7805
98.4155
97.8242
637.331
574.349
495.431
403.259
312.828
239.504
194.064
169.401
155.959
147.114
141.502
137.205
133.629
130.465
127.554
124.814
122.208
119.723
117.379
115.013
112.77
110.612
108.527
106.509
104.553
102.655
100.812
99.0326
97.3608
96.5026
638.06
578.545
508.26
431.404
356.284
292.298
245.438
213.529
192.274
177.257
165.71
156.864
149.549
143.313
137.863
133.013
128.637
124.655
121.014
117.622
114.476
111.546
108.802
106.222
103.787
101.48
99.291
97.2178
95.2795
94.1784
636.938
576.175
509.054
440.725
376.104
319.931
275.138
241.152
215.885
196.716
181.736
169.468
159.378
150.873
143.54
137.122
131.438
126.356
121.779
117.614
113.808
110.313
107.088
104.1
101.32
98.7225
96.2873
94.0082
91.8728
90.5738
633.14
565.075
495.855
431.123
373.268
323.627
282.735
249.98
224.099
203.517
186.921
173.328
161.668
151.907
143.546
136.253
129.828
124.119
119.011
114.405
110.23
106.425
102.942
99.7381
96.7796
94.0372
91.4835
89.1125
86.871
85.4353
625.17
541.89
466.015
402.186
349.416
305.83
269.975
240.643
216.716
197.105
180.906
167.433
155.76
145.792
137.283
129.844
123.288
117.468
112.269
107.595
103.371
99.5347
96.0338
92.8262
89.8746
87.1502
84.6201
82.2874
80.0471
78.5471
609.921
501.265
416.29
353.506
306.279
269.447
239.796
215.475
195.307
178.419
164.215
152.172
141.594
132.527
124.675
117.772
111.665
106.229
101.365
96.9882
93.0318
89.4395
86.163
83.1643
80.4066
77.8677
75.5061
73.3493
71.2269
69.7424
580.21
435.155
343.991
286.366
247.239
218.591
196.159
177.874
162.583
149.526
138.403
128.605
120.118
112.679
106.127
100.32
95.148
90.5187
86.3574
82.6007
79.1952
76.0972
73.2662
70.6739
68.2841
66.0901
64.033
62.186
60.3032
58.9186
518.287
334.727
250.41
205.654
178.039
158.935
144.197
132.252
122.178
113.296
105.617
98.797
92.7372
87.3343
82.5033
78.1708
74.2736
70.7575
67.5754
64.6868
62.0554
59.6531
57.4479
55.4272
53.551
51.8403
50.2041
48.7813
47.2615
46.0651
383.631
202.014
146.993
121.926
107.303
97.5985
89.834
83.5914
78.1879
73.3311
68.9655
65.0087
61.42
58.1532
55.1788
52.4712
50.0059
47.7591
45.708
43.8328
42.1124
40.535
39.0751
37.7393
36.4787
35.3502
34.2264
33.2956
32.263
31.3465
151.871
75.0449
58.0669
50.4178
45.7446
42.6281
40.0565
37.8324
35.8305
33.9823
32.2684
30.6746
29.2022
27.8198
26.5324
25.3418
24.244
23.2331
22.3014
21.443
20.648
19.9161
19.2296
18.6051
17.9992
17.4714
16.9242
16.4639
16.0212
15.473
12.4958
9.27947
7.62616
6.69601
6.09733
5.67305
5.34192
5.06528
4.82296
4.60369
4.40162
4.21346
4.03737
3.87268
3.71814
3.57296
3.4366
3.30861
3.18851
3.07581
2.97015
2.87074
2.77796
2.68943
2.60893
2.52768
2.46082
2.38278
2.32313
2.24671
630.056
542.424
347.841
164.409
53.412
0.132424
15.2075
29.0511
41.5606
52.6193
62.1018
70.0769
76.7285
82.2582
86.8387
90.5993
95.0685
99.4525
100.442
101.044
101.314
101.304
101.056
100.609
99.9998
99.2693
98.5051
98.419
631.055
546.742
399.755
189.095
78.5585
1.55994
1.75135
21.5003
35.185
47.2271
57.723
66.6439
74.0832
80.2264
85.2771
89.4127
92.7675
97.1196
101.465
102.087
102.375
102.378
102.139
101.697
101.085
100.336
99.4865
98.6214
98.4514
632.826
554.439
444.058
267.99
141.074
40.3325
18.8731
26.5584
39.6902
51.482
61.7466
70.5467
77.894
83.8927
88.7176
92.5621
95.6005
97.968
101.497
105.062
105.023
104.74
104.253
103.595
102.796
101.881
100.874
99.8052
98.753
98.4269
634.934
563.456
467.012
344.158
213.753
122.382
70.7414
65.1985
70.7137
77.6453
84.1659
89.8035
94.4232
98.0531
100.806
102.828
104.256
105.206
107.352
109.532
108.639
107.616
106.492
105.289
104.025
102.714
101.369
100.013
98.7139
98.1796
636.981
572.36
489.268
389.574
291.44
197.568
149.521
129.008
121.554
119.302
118.743
118.665
118.574
118.275
117.721
116.935
115.96
114.848
113.62
114.023
112.186
110.35
108.53
106.731
104.958
103.213
101.499
99.8288
98.2551
97.4855
638.413
578.915
506.032
423.304
341.482
273.52
226.206
196.658
178.221
165.668
156.563
149.663
143.969
139.064
134.706
130.754
127.124
123.766
120.668
117.664
114.875
112.247
109.757
107.388
105.131
102.972
100.905
98.9325
97.0909
96.0844
638.693
581.216
514.377
442.677
372.832
312.228
265.462
231.803
207.881
190.312
176.772
165.896
157.062
149.554
143.043
137.297
132.165
127.539
123.345
119.48
115.927
112.644
109.594
106.749
104.085
101.579
99.2176
96.995
94.9234
93.7025
637.242
577.485
512.101
446.392
384.655
330.593
286.468
252.057
225.643
205.136
188.876
175.589
164.422
155.075
147.031
140.008
133.804
128.275
123.311
118.811
114.715
110.968
107.524
104.344
101.396
98.6529
96.0903
93.7001
91.4636
90.0702
633.228
565.502
496.996
433.455
377.031
328.586
288.341
255.686
229.469
208.339
191.125
176.949
164.798
154.485
145.696
138.027
131.272
125.276
119.915
115.089
110.72
106.745
103.111
99.7759
96.701
93.856
91.2119
88.7615
86.4464
84.938
625.139
541.831
466.103
402.682
350.526
307.584
272.201
243.107
219.193
199.446
183.027
169.301
157.422
147.187
138.45
130.804
124.062
118.074
112.725
107.916
103.572
99.6273
96.03
92.7362
89.7074
86.9143
84.3226
81.9356
79.6439
78.0891
609.842
501.01
415.942
353.205
306.168
269.613
240.241
216.14
196.1
179.261
165.034
152.938
142.297
133.139
125.192
118.195
111.998
106.477
101.533
97.082
93.0569
89.4015
86.0671
83.0155
80.2094
77.6267
75.225
73.0327
70.8762
69.3513
580.131
434.892
343.581
285.877
246.758
218.195
195.894
177.752
162.573
149.612
138.529
128.765
120.296
112.845
106.271
100.436
95.2306
90.5666
86.3697
82.5775
79.1373
76.0058
73.1427
70.5202
68.102
65.8817
63.7997
61.9304
60.0265
58.613
518.235
334.549
250.115
205.266
177.599
158.495
143.795
131.926
121.906
113.1
105.489
98.7103
92.6828
87.2992
82.4778
78.1472
74.2459
70.7215
67.5279
64.6258
61.9795
59.5616
57.3405
55.304
53.4123
51.6869
50.0361
48.6002
47.0688
45.8525
383.611
201.936
146.848
121.718
107.045
97.3189
89.5479
83.329
77.9551
73.1358
68.8085
64.8834
61.3202
58.0741
55.1148
52.4171
49.9571
47.7121
45.6599
43.7814
42.0561
40.4727
39.006
37.6632
36.395
35.2593
34.128
33.19
32.1525
31.2234
151.869
75.0275
58.0258
50.3538
45.6554
42.5234
39.944
37.7216
35.727
33.8898
32.1884
30.6069
29.144
27.7731
26.495
25.3112
24.2179
23.2097
22.2792
21.4208
20.6249
19.8914
19.2028
18.5761
17.9674
17.4371
16.8872
16.4237
15.9805
15.4252
12.4958
9.27912
7.62456
6.69268
6.09199
5.66588
5.3333
5.05577
4.81312
4.59397
4.39234
4.20481
4.02943
3.86538
3.71147
3.56688
3.43103
3.30345
3.18368
3.07122
2.96572
2.8664
2.77367
2.68511
2.60461
2.52315
2.45645
2.37766
2.31938
2.24045
633.183
556.181
450.021
321.194
171.276
70.044
38.6844
52.223
61.6443
70.4502
78.1548
84.6472
89.9302
94.0997
97.3129
99.7395
101.531
102.81
103.655
105.977
105.667
105.15
104.466
103.643
102.707
101.677
100.575
99.4284
98.3076
97.9223
633.981
559.609
458.796
335.5
192.844
88.4172
52.6816
63.8184
70.6706
77.9316
84.4701
90.0081
94.4937
97.9893
100.626
102.553
103.908
104.806
105.317
107.587
106.984
106.214
105.313
104.305
103.209
102.043
100.825
99.5785
98.3723
97.9153
635.362
565.47
472.695
356.078
233.615
142.612
100.924
90.6847
91.3574
94.8152
98.5439
101.854
104.508
106.473
107.813
108.627
109.02
109.082
108.867
110.465
109.327
108.094
106.795
105.444
104.054
102.638
101.205
99.7749
98.4105
97.8196
636.977
572.345
489.233
389.5
291.323
197.408
149.397
128.911
121.464
119.225
118.68
118.614
118.532
118.24
117.694
116.912
115.942
114.833
113.608
114.014
112.179
110.343
108.524
106.726
104.954
103.209
101.496
99.8259
98.2525
97.483
638.44
578.694
504.593
419.446
335.168
253.642
201.412
172.257
156.729
147.782
142.073
137.884
134.477
131.468
128.673
126.012
123.456
120.995
118.624
117.492
114.891
112.393
110.004
107.719
105.529
103.426
101.407
99.4743
97.6695
96.6983
639.31
582.85
515.491
441.363
368.302
305.373
257.778
224.633
201.745
185.39
172.853
163.02
154.977
148.13
142.162
136.864
132.1
127.778
123.849
120.15
116.766
113.625
110.693
107.944
105.357
102.916
100.606
98.4249
96.3962
95.2224
639.13
583.228
519.405
452.456
387.798
330.825
284.885
249.922
223.705
203.74
188.098
175.338
164.791
155.913
148.25
141.537
135.586
130.262
125.468
121.093
117.1
113.437
110.058
106.928
104.016
101.298
98.7516
96.369
94.1519
92.7961
637.351
578.142
514.124
450.768
391.844
340.069
296.964
262.397
235.079
213.382
195.901
181.589
169.399
159.135
150.351
142.689
135.936
129.933
124.558
119.705
115.301
111.288
107.611
104.229
101.105
98.2083
95.5116
93.0047
90.6596
89.1605
633.133
565.321
497.185
434.629
379.583
332.437
293.01
260.629
234.241
212.687
194.94
180.213
167.615
156.763
147.542
139.492
132.404
126.114
120.495
115.442
110.874
106.724
102.937
99.4654
96.271
93.3209
90.584
88.0525
85.66
84.0708
624.948
541.251
465.391
402.205
350.595
308.32
273.508
244.768
220.983
201.199
184.639
170.712
158.665
148.201
139.254
131.415
124.495
118.346
112.851
107.912
103.449
99.3984
95.706
92.3271
89.2221
86.3611
83.7085
81.2681
78.9239
77.3086
609.638
500.359
414.993
352.173
305.259
268.973
239.916
216.097
196.254
179.534
165.345
153.241
142.578
133.369
125.351
118.28
112.009
106.415
101.401
96.8837
92.7964
89.0831
85.6951
82.5941
79.7428
77.1189
74.6792
72.4536
70.2637
68.6945
579.969
434.375
342.788
284.912
245.741
217.237
195.067
177.092
162.06
149.238
138.228
128.538
120.116
112.683
106.11
100.266
95.0445
90.3589
86.1371
82.3182
78.8505
75.6916
72.8015
70.153
67.7098
65.4661
63.3616
61.4727
59.5494
58.1041
518.141
334.248
249.628
204.628
176.86
157.724
143.047
131.257
121.298
112.593
105.059
98.3462
92.3719
87.0269
82.2319
77.9174
74.0244
70.5019
67.3055
64.397
61.7417
59.3133
57.0804
55.0317
53.1272
51.3897
49.7264
48.279
46.7383
45.5
383.58
201.819
146.635
121.412
106.657
96.8872
89.0936
82.8903
77.5446
72.7686
68.4851
64.6009
61.073
57.8571
54.9218
52.242
49.7945
47.5573
45.5092
43.6318
41.9052
40.3189
38.8478
37.5001
36.2261
35.0848
33.9473
33.0024
31.9633
31.0179
151.867
75.0044
57.9707
50.2662
45.5312
42.3738
39.7789
37.553
35.5629
33.7363
32.0483
30.4809
29.0297
27.6734
26.4074
25.2332
24.1471
23.1438
22.2165
21.3597
20.5643
19.8304
19.1406
18.5125
17.9018
17.3693
16.8179
16.3491
15.913
15.337
12.4958
9.2787
7.62251
6.68834
6.08487
5.6561
5.32125
5.04214
4.7986
4.57918
4.37776
4.19075
4.01608
3.85271
3.69954
3.55566
3.42046
3.29345
3.17416
3.06208
2.95689
2.85779
2.76522
2.67672
2.59638
2.51452
2.44939
2.36406
2.33188
2.21087
635.811
567.987
480.653
374.953
272.252
181.778
134.711
134.325
128.325
125.3
123.527
122.272
121.16
120.021
118.793
117.47
116.068
114.613
113.164
111.559
109.969
108.373
106.772
105.17
103.574
101.985
100.409
98.8597
97.3877
96.701
636.369
570.326
486.166
385.656
287.387
196.554
147.88
146.636
137.738
132.927
129.788
127.48
125.518
123.681
121.872
120.058
118.239
116.426
114.665
112.794
110.975
109.182
107.411
105.664
103.941
102.244
100.575
98.945
97.4033
96.657
637.322
574.311
495.343
403.083
312.556
239.198
193.789
169.169
155.753
146.942
141.361
137.089
133.533
130.386
127.489
124.76
122.164
119.686
117.348
114.987
112.748
110.593
108.511
106.495
104.541
102.644
100.802
99.0242
97.3532
96.4957
638.408
578.893
505.983
423.212
341.343
273.357
226.054
196.526
178.105
165.567
156.479
149.593
143.911
139.015
134.665
130.72
127.096
123.742
120.647
117.647
114.861
112.235
109.746
107.379
105.122
102.964
100.898
98.9266
97.0855
96.0796
639.308
582.841
515.472
441.33
368.253
305.312
257.719
224.579
201.697
185.348
172.817
162.99
154.951
148.109
142.143
136.848
132.087
127.767
123.84
120.142
116.759
113.619
110.687
107.939
105.353
102.913
100.603
98.422
96.3935
95.2199
639.668
584.849
521.377
453.852
388.089
330.103
283.586
248.522
222.467
202.783
187.431
174.921
164.645
155.97
148.476
141.9
136.062
130.828
126.109
121.782
117.833
114.207
110.859
107.753
104.86
102.155
99.6177
97.2414
95.034
93.6931
639.085
583.553
521.529
458.138
397.827
344.311
299.815
264.435
236.75
214.961
197.513
183.278
171.177
161.044
152.334
144.734
138.029
132.062
126.713
121.872
117.475
113.462
109.781
106.391
103.254
100.341
97.6266
95.0992
92.746
91.2567
637.032
577.34
513.753
452.008
395.408
345.809
304.009
269.757
242.035
219.569
201.194
186.015
173.101
162.011
152.583
144.364
137.129
130.708
124.97
119.806
115.132
110.884
107.003
103.443
100.164
97.132
94.3181
91.71
89.2667
87.6639
632.669
563.91
495.425
433.338
379.387
333.492
295.043
263.19
236.924
215.224
197.179
182.08
169.186
157.938
148.37
140.02
132.664
126.136
120.306
115.068
110.336
106.042
102.127
98.543
95.2498
92.2131
89.3999
86.8027
84.3434
82.676
624.455
539.687
463.168
399.877
348.63
306.974
272.8
244.561
221.086
201.449
184.912
170.922
158.815
148.236
139.161
131.196
124.158
117.899
112.3
107.266
102.718
98.5893
94.8263
91.3838
88.2217
85.3098
82.6114
80.1319
77.7456
76.0727
609.207
498.991
412.976
349.849
302.941
266.881
238.159
214.687
195.136
178.643
164.599
152.57
141.97
132.794
124.768
117.679
111.38
105.755
100.706
96.1541
92.0317
88.2842
84.8635
81.7316
78.8512
76.2007
73.7359
71.4894
69.2756
67.6648
579.659
433.415
341.347
283.16
243.846
215.354
193.305
175.516
160.669
148.044
137.155
127.601
119.273
111.912
105.387
99.5735
94.3702
89.6935
85.4736
81.6516
78.1771
75.0089
72.1079
69.4477
66.9922
64.7366
62.6196
60.7204
58.7859
57.3114
517.973
333.741
248.834
203.599
175.664
156.448
141.769
130.051
120.157
111.575
104.138
97.5206
91.6273
86.3497
81.6077
77.334
73.4713
69.9704
66.7886
63.8893
61.2389
58.812
56.5782
54.527
52.6184
50.8765
49.2076
47.755
46.2112
44.9537
383.53
201.645
146.322
120.964
106.088
96.2401
88.4
82.1962
76.8721
72.141
67.9068
64.0732
60.5916
57.4181
54.519
51.869
49.445
47.2258
45.1908
43.3228
41.6024
40.0199
38.5504
37.2031
35.928
34.7853
33.6457
32.6972
31.6592
30.7054
151.863
74.9742
57.8978
50.1488
45.3621
42.1659
39.5441
37.3061
35.3147
33.496
31.8205
30.2682
28.831
27.4918
26.2414
25.0802
24.0047
23.0097
22.0885
21.2362
20.4438
19.712
19.0231
18.3956
17.7845
17.2516
16.6995
16.2302
15.7889
15.2259
12.4958
9.27819
7.62
6.68286
6.07567
5.64316
5.30495
5.02326
4.77797
4.55763
4.35594
4.16917
3.99504
3.83233
3.67993
3.53687
3.40248
3.27622
3.15761
3.04613
2.94145
2.84276
2.75056
2.66233
2.58216
2.50085
2.43412
2.35599
2.2961
2.21923
637.113
574.64
499.502
415.382
332.981
266.088
220.043
189.837
172.587
160.818
152.314
145.724
140.267
135.559
131.378
127.592
124.12
120.908
117.93
115.106
112.448
109.941
107.564
105.302
103.142
101.075
99.0925
97.1985
95.4184
94.4563
637.462
576.08
502.736
421.322
341.608
276.088
229.682
198.348
179.494
166.626
156.993
149.622
143.521
138.282
133.66
129.505
125.719
122.239
119.03
116.008
113.179
110.524
108.019
105.646
103.39
101.239
99.1844
97.2277
95.3926
94.3822
638.051
578.511
508.186
431.267
356.079
292.058
245.202
213.316
192.086
177.096
165.573
156.75
149.453
143.232
137.796
132.956
128.589
124.613
120.979
117.592
114.45
111.523
108.782
106.204
103.771
101.467
99.2788
97.2068
95.2696
94.1693
638.687
581.195
514.331
442.595
372.711
312.082
265.316
231.668
207.76
190.207
176.68
165.818
156.995
149.498
142.995
137.256
132.13
127.509
123.32
119.458
115.907
112.627
109.579
106.736
104.073
101.569
99.2082
96.9865
94.9157
93.6954
639.128
583.216
519.381
452.415
387.739
330.753
284.809
249.85
223.64
203.682
188.046
175.293
164.752
155.879
148.222
141.513
135.565
130.244
125.452
121.079
117.088
113.426
110.048
106.919
104.009
101.291
98.7454
96.3634
94.1468
92.7914
639.084
583.549
521.52
458.124
397.806
344.286
299.788
264.409
236.725
214.938
197.492
183.26
171.161
161.03
152.322
144.723
138.02
132.053
126.706
121.865
117.469
113.457
109.777
106.387
103.25
100.338
97.6236
95.0965
92.7435
91.2544
638.2
581.01
518.9
457.448
400.347
349.928
307.341
272.491
244.362
221.634
203.089
187.792
174.797
163.654
154.173
145.913
138.642
132.189
126.422
121.227
116.525
112.248
108.341
104.754
101.45
98.3939
95.5565
92.9249
90.4665
88.8607
635.971
574.055
509.437
448.232
393.305
345.677
305.435
272.042
244.564
221.941
203.195
187.547
174.264
162.67
152.808
144.229
136.674
129.973
123.99
118.614
113.757
109.348
105.329
101.648
98.2653
95.1447
92.2542
89.5819
87.0686
85.3778
631.564
560.401
490.449
428.114
374.869
330.138
292.832
261.842
236.105
214.662
196.687
181.531
168.578
157.195
147.458
138.97
131.481
124.829
118.886
113.547
108.725
104.351
100.366
96.7205
93.3733
90.29
87.4361
84.806
82.3055
80.5737
623.431
536.436
458.444
394.579
343.481
302.41
268.971
241.426
218.507
199.276
183.009
169.18
157.18
146.674
137.615
129.65
122.6
116.322
110.701
105.642
101.068
96.9157
93.1298
89.666
86.4846
83.5557
80.8415
78.3511
75.9451
74.2265
608.37
496.387
409.181
345.452
298.414
262.557
234.222
211.2
192.076
175.96
162.214
150.388
139.985
130.965
123.035
116.018
109.772
104.185
99.1637
94.6302
90.5204
86.7811
83.3653
80.2362
77.3569
74.7071
72.2413
69.9967
67.7779
66.1352
579.082
431.686
338.827
280.145
240.59
212.069
190.145
172.579
157.977
145.627
134.931
125.599
117.443
110.228
103.818
98.0965
92.9661
88.3471
84.1727
80.3862
76.9394
73.7928
70.9085
68.2614
65.8157
63.5686
61.457
59.5647
57.634
56.1374
517.673
332.876
247.532
201.95
173.768
154.422
139.714
128.066
118.245
109.813
102.506
96.0229
90.2505
85.0799
80.429
76.2315
72.4317
68.9823
65.8423
62.9766
60.3531
57.9479
55.731
53.6936
51.7955
50.0627
48.4
46.9532
45.418
44.1448
383.445
201.372
145.849
120.297
105.248
95.2793
87.3638
81.1399
75.8296
71.1453
66.9676
63.1967
59.7763
56.6612
53.8149
51.2109
48.8259
46.6393
44.6312
42.7851
41.0822
39.514
38.0556
36.7176
35.4492
34.3125
33.1777
32.2305
31.2035
30.2374
151.858
74.9328
57.7982
49.9873
45.1286
41.8758
39.2125
36.9509
34.9507
33.1359
31.4716
29.9352
28.5146
27.1955
25.9645
24.8209
23.7604
22.7782
21.8674
21.0238
20.2382
19.5122
18.8274
18.2037
17.5952
17.0643
16.515
16.0438
15.6106
15.0398
12.4958
9.27759
7.61688
6.67584
6.06361
5.62591
5.28288
4.99728
4.7491
4.52695
4.32433
4.13735
3.96352
3.80138
3.64979
3.50768
3.37428
3.24901
3.13135
3.02073
2.91686
2.81887
2.72734
2.63961
2.56004
2.47896
2.41298
2.33452
2.27567
2.19833
636.416
574.045
504.376
432.365
363.83
305.296
260.053
226.707
203.199
185.897
172.576
161.745
152.946
145.479
139.018
133.338
128.283
123.744
119.638
115.881
112.427
109.239
106.281
103.526
100.949
98.5292
96.2489
94.1051
92.0907
90.9018
636.612
574.84
506.111
435.452
368.347
310.706
265.589
231.901
207.701
189.718
175.832
164.442
155.211
147.381
140.615
134.678
129.403
124.676
120.405
116.506
112.929
109.634
106.583
103.747
101.099
98.6166
96.2822
94.0911
92.0346
90.8075
636.931
576.148
508.998
440.628
375.963
319.762
274.961
240.983
215.732
196.581
181.618
169.365
159.291
150.798
143.475
137.065
131.389
126.314
121.742
117.582
113.78
110.288
107.066
104.081
101.302
98.7067
96.2731
93.9953
91.8609
90.5628
637.237
577.466
512.063
446.327
384.563
330.481
286.349
251.942
225.537
205.039
188.791
175.514
164.356
155.018
146.981
139.965
133.767
128.242
123.282
118.786
114.692
110.948
107.506
104.328
101.382
98.6401
96.0787
93.6895
91.4539
90.0612
637.348
578.131
514.101
450.731
391.791
340.004
296.894
262.327
235.013
213.321
195.846
181.541
169.355
159.097
150.318
142.66
135.91
129.91
124.538
119.687
115.286
111.274
107.599
104.218
101.095
98.1989
95.5031
92.9969
90.6524
89.1538
637.03
577.334
513.742
451.99
395.382
345.778
303.975
269.722
242.001
219.537
201.165
185.988
173.076
161.989
152.564
144.347
137.113
130.694
124.958
119.795
115.123
110.875
106.995
103.436
100.157
97.126
94.3127
91.7051
89.2621
87.6597
635.97
574.053
509.433
448.226
393.296
345.666
305.422
272.03
244.552
221.929
203.183
187.536
174.254
162.661
152.8
144.221
136.668
129.968
123.985
118.609
113.753
109.344
105.325
101.645
98.2624
95.142
92.2517
89.5796
87.0665
85.3758
633.692
566.846
499.232
437.405
383.6
337.872
299.52
267.601
241.102
219.052
200.596
185.052
171.822
160.177
150.215
141.557
133.92
127.14
121.085
115.645
110.734
106.279
102.22
98.508
95.0996
91.9597
89.0543
86.3744
83.8367
82.0859
629.378
553.488
480.523
417.158
364.348
320.832
284.955
255.261
230.555
209.873
192.436
177.651
164.946
153.758
144.143
135.735
128.303
121.692
115.78
110.464
105.661
101.303
97.3314
93.6993
90.3649
87.295
84.4537
81.8402
79.3387
77.567
621.488
530.372
449.76
384.82
333.76
293.372
260.893
234.338
212.306
193.815
178.14
164.766
153.101
142.914
134.075
126.283
119.371
113.204
107.674
102.69
98.1791
94.0802
90.3405
86.9173
83.7718
80.8759
78.1904
75.7308
73.3398
71.5962
606.812
491.66
402.493
337.854
290.636
255.059
227.257
204.87
186.377
170.845
157.606
146.156
136.139
127.42
119.732
112.913
106.831
101.38
96.4709
92.0323
88.0028
84.3321
80.9751
77.8973
75.0627
72.4532
70.0216
67.8123
65.6174
63.9595
578.014
428.595
334.498
275.131
235.28
206.75
185.015
167.761
153.509
141.545
131.148
122.157
114.279
107.307
101.104
95.557
90.5739
86.0793
82.0099
78.3127
74.9417
71.8601
69.0314
66.4328
64.0289
61.8194
59.7392
57.8783
55.9745
54.4677
517.121
331.359
245.356
199.297
170.796
151.288
136.551
124.994
115.275
107.04
99.9123
93.6194
88.023
83.0124
78.5033
74.4295
70.7365
67.3789
64.3173
61.5187
58.9524
56.5964
54.4216
52.421
50.5541
48.8497
47.2107
45.7848
44.2772
42.9928
383.292
200.917
145.097
119.272
103.984
93.8533
85.835
79.5774