/*--------------------------------*- C++ -*----------------------------------*\
  =========                 |
  \\      /  F ield         | OpenFOAM: The Open Source CFD Toolbox
   \\    /   O peration     | Website:  https://openfoam.org
    \\  /    A nd           | Version:  7
     \\/     M anipulation  |
\*---------------------------------------------------------------------------*/
FoamFile
{
    version     2.0;
    format      ascii;
    class       volScalarField;
    location    "300";
    object      omega;
}
// * * * * * * * * * * * * * * * * * * * * * * * * * * * * * * * * * * * * * //

dimensions      [0 0 -1 0 0 0 0];

internalField   nonuniform List<scalar> 
27370
(
0.558857
0.694901
1.22062
8.18654
3.00881
3.27518
2.98485
2.57039
2.19428
1.88973
1.65164
1.46638
1.32095
1.19064
1.076
1.00763
0.949991
0.900297
0.857046
0.819055
0.785376
0.755265
0.728118
0.703533
0.679581
0.557161
0.674241
1.07226
5.24485
4.66259
4.04043
3.16623
2.56328
2.14326
1.8388
1.61086
1.43591
1.29871
1.17231
1.06045
0.995957
0.940869
0.893251
0.851659
0.814974
0.782319
0.75301
0.726493
0.702404
0.678859
0.554924
0.650547
0.894064
2.54602
14.6261
6.72897
4.10363
2.98519
2.36908
1.98016
1.71227
1.51612
1.36607
1.24753
1.13459
1.03268
0.974611
0.9245
0.880758
0.842183
0.807849
0.777031
0.749161
0.723778
0.700588
0.677779
0.551753
0.632731
0.824731
1.44499
5.50525
96.8849
7.73591
4.40554
3.12105
2.44252
2.02652
1.74701
1.54658
1.39553
1.27719
1.1816
1.08694
0.998614
0.948609
0.904695
0.865744
0.830893
0.799472
0.770944
0.744882
0.720935
0.698893
0.677005
0.548118
0.613273
0.742859
1.02052
1.81057
3.96114
5.88744
4.01091
3.11738
2.52323
2.12232
1.83968
1.63219
1.47441
1.3506
1.25073
1.16822
1.09861
1.03877
0.96536
0.923301
0.885556
0.851425
0.820366
0.791944
0.765798
0.741637
0.719203
0.698383
0.677439
0.545047
0.597398
0.688892
0.854402
1.1218
1.58975
1.95744
1.7733
1.70106
1.60123
1.49945
1.40461
1.31951
1.2442
1.17771
1.11883
1.06639
1.01934
0.976604
0.938112
0.902909
0.870573
0.840739
0.813102
0.787407
0.763436
0.741015
0.719978
0.700304
0.680174
0.543257
0.58793
0.65777
0.76396
0.910797
1.07439
1.21089
1.29727
1.31641
1.30333
1.27152
1.23071
1.18703
1.14326
1.1008
1.06033
1.02208
0.986105
0.952244
0.920514
0.890714
0.86268
0.836277
0.811391
0.787906
0.765715
0.744723
0.72482
0.706097
0.686506
0.543287
0.586353
0.646992
0.727272
0.82592
0.931373
1.02528
1.09499
1.13298
1.14653
1.14316
1.12994
1.10857
1.08318
1.05559
1.02704
0.998332
0.969934
0.942157
0.915242
0.889293
0.864357
0.840444
0.817547
0.795647
0.774707
0.754703
0.735551
0.717493
0.698037
0.545824
0.594611
0.656519
0.728755
0.808161
0.888437
0.960925
1.01876
1.05794
1.07996
1.08769
1.08529
1.07632
1.06076
1.04148
1.01985
0.996828
0.973084
0.94909
0.925191
0.90163
0.878571
0.856119
0.834344
0.813292
0.792973
0.773418
0.754526
0.736782
0.716909
0.552209
0.617048
0.691188
0.767437
0.842046
0.911745
0.972781
1.02196
1.05745
1.07975
1.09036
1.09115
1.08672
1.07585
1.06019
1.04171
1.02129
0.999626
0.977254
0.954572
0.931881
0.909405
0.887301
0.865681
0.844634
0.824186
0.804437
0.785178
0.767344
0.746307
0.565536
0.663659
0.764698
0.856166
0.934688
1.00036
1.05379
1.09509
1.12438
1.14261
1.15063
1.15026
1.14517
1.13385
1.11809
1.09945
1.07876
1.0567
1.03379
1.01043
0.986964
0.963613
0.94057
0.917951
0.89589
0.874369
0.853631
0.833147
0.814772
0.791499
0.594052
0.759327
0.91037
1.02875
1.11604
1.17883
1.22381
1.25461
1.2735
1.28297
1.28298
1.27778
1.2663
1.25007
1.23034
1.20804
1.18393
1.15864
1.13265
1.10635
1.08004
1.05395
1.02829
1.00313
0.978679
0.954752
0.931968
0.908936
0.889516
0.862329
0.664512
0.975766
1.21581
1.37011
1.46196
1.51283
1.54067
1.55221
1.55181
1.54556
1.53131
1.51199
1.48861
1.46198
1.4329
1.40211
1.37019
1.33765
1.3049
1.27226
1.24002
1.20833
1.17744
1.14726
1.11828
1.0897
1.06329
1.03533
1.01426
0.980172
0.896594
1.57455
1.95134
2.11885
2.17938
2.18143
2.16668
2.13526
2.09717
2.05661
2.01323
1.96785
1.92089
1.87317
1.82505
1.77685
1.72891
1.68151
1.63495
1.58942
1.5452
1.50223
1.46098
1.42076
1.38303
1.34506
1.31203
1.27401
1.25013
1.20281
2.25129
3.88455
4.19844
4.15147
4.0172
3.84974
3.69793
3.55905
3.43111
3.31215
3.19967
3.09237
2.98855
2.8905
2.7966
2.70613
2.61891
2.5349
2.45422
2.37682
2.30298
2.23213
2.1654
2.10032
2.04142
1.98
1.93114
1.86882
1.83621
1.7582
25.3733
18.8431
15.4888
13.6037
12.3921
11.5341
10.8642
10.3037
9.81163
9.3655
8.95367
8.56978
8.21035
7.87439
7.5591
7.26301
6.98506
6.72431
6.47984
6.25059
6.03584
5.83393
5.6456
5.46602
5.3029
5.13781
5.00447
4.83759
4.7536
4.5385
0.557159
0.674234
1.07217
5.26363
4.79202
4.07733
3.17564
2.56625
2.14439
1.83926
1.61109
1.43603
1.29877
1.17235
1.06049
0.995983
0.940887
0.893264
0.851669
0.814982
0.782325
0.753014
0.726497
0.702407
0.678862
0.555813
0.660375
0.976951
3.85445
6.22304
4.25743
3.15367
2.50332
2.0822
1.78849
1.57246
1.40747
1.27789
1.15524
1.04578
0.984727
0.932236
0.886633
0.846611
0.811151
0.779454
0.750895
0.72497
0.70135
0.678192
0.553674
0.642218
0.85193
2.2009
82.6815
18.8363
6.13435
3.84809
2.84502
2.27972
1.9184
1.66788
1.48365
1.34214
1.22983
1.11994
1.01986
0.964782
0.916944
0.874954
0.837742
0.804474
0.774494
0.747286
0.722431
0.699661
0.677199
0.550626
0.626652
0.796028
1.28975
3.88328
69.9231
33.0709
6.40096
3.97896
2.92054
2.32978
1.95585
1.69934
1.51281
1.37084
1.25878
1.16773
1.07521
0.988304
0.94061
0.898487
0.860935
0.827188
0.796641
0.768809
0.743304
0.719804
0.698123
0.676534
0.547246
0.608813
0.727243
0.975474
1.61314
2.82504
4.57981
3.40664
2.81431
2.35056
2.01525
1.76915
1.58351
1.43954
1.32489
1.23137
1.15341
1.08716
1.02989
0.957446
0.917077
0.880669
0.847604
0.8174
0.789665
0.764075
0.740364
0.718295
0.697774
0.677078
0.544444
0.594487
0.680194
0.829544
1.06262
1.47668
1.79706
1.6427
1.60402
1.52841
1.44496
1.36337
1.28798
1.21985
1.15873
1.10391
1.05459
1.00996
0.969157
0.932183
0.898192
0.866833
0.83779
0.810795
0.785624
0.762084
0.740018
0.719271
0.69984
0.679909
0.542872
0.586154
0.652966
0.752434
0.887271
1.03618
1.16288
1.24682
1.27248
1.26553
1.24152
1.20641
1.16746
1.12751
1.08811
1.05008
1.01379
0.979403
0.946826
0.91614
0.88719
0.859852
0.834027
0.809618
0.786531
0.764669
0.74395
0.724275
0.705743
0.68631
0.54306
0.58533
0.644381
0.72158
0.815292
0.91507
1.00462
1.0722
1.11106
1.12676
1.12575
1.11534
1.09631
1.07296
1.04711
1.02001
0.992518
0.965134
0.938212
0.912012
0.88666
0.862225
0.83873
0.816184
0.794579
0.773888
0.754092
0.735116
0.717208
0.697874
0.545701
0.594064
0.655147
0.725876
0.803032
0.88071
0.950979
1.00741
1.04634
1.06889
1.07763
1.07616
1.06846
1.05402
1.03573
1.01498
0.992718
0.969633
0.946204
0.92279
0.899642
0.876936
0.854785
0.833267
0.812433
0.7923
0.772904
0.754147
0.73652
0.716742
0.552152
0.616791
0.69054
0.766071
0.839558
0.907927
0.967727
1.016
1.05109
1.0734
1.08434
1.08558
1.08159
1.07137
1.05626
1.03829
1.01833
0.997092
0.975091
0.952734
0.930329
0.9081
0.886212
0.864779
0.843894
0.823586
0.803957
0.784801
0.76706
0.746097
0.565516
0.66357
0.764461
0.855622
0.933623
0.998605
1.05132
1.092
1.12088
1.13894
1.14699
1.14673
1.14182
1.13079
1.11532
1.09697
1.07657
1.05476
1.03209
1.00895
0.985678
0.962502
0.939613
0.917131
0.89519
0.873775
0.85313
0.832724
0.814424
0.791208
0.59405
0.759331
0.910372
1.02868
1.11575
1.1782
1.22274
1.2531
1.27164
1.28086
1.28076
1.2755
1.26402
1.2479
1.22829
1.20614
1.1822
1.15706
1.13122
1.10506
1.07889
1.05293
1.02738
1.00231
0.977955
0.954108
0.931398
0.908426
0.88907
0.861923
0.664517
0.975825
1.21597
1.37035
1.46217
1.51286
1.54042
1.55157
1.55093
1.54437
1.52983
1.51041
1.48695
1.46031
1.43126
1.40052
1.36868
1.33623
1.30358
1.27103
1.23889
1.20729
1.17649
1.14638
1.11748
1.08896
1.06261
1.03469
1.01368
0.979615
0.896601
1.57466
1.95166
2.11934
2.17993
2.18182
2.16688
2.13508
2.09667
2.05579
2.01213
1.96656
1.91948
1.87168
1.82353
1.77535
1.72743
1.68009
1.6336
1.58815
1.54399
1.5011
1.45992
1.41976
1.3821
1.34418
1.3112
1.2732
1.24939
1.20207
2.2513
3.88474
4.19891
4.152
4.01773
3.84999
3.69782
3.55852
3.4302
3.31094
3.19822
3.09077
2.98693
2.88876
2.79481
2.70435
2.61717
2.53323
2.45263
2.37531
2.30155
2.23077
2.16411
2.09907
2.04023
1.97883
1.93003
1.86769
1.83511
1.75712
25.3733
18.8428
15.4875
13.6012
12.3882
11.529
10.8584
10.2975
9.8056
9.35987
8.94863
8.56541
8.20667
7.87126
7.55649
7.26085
6.98326
6.72279
6.47852
6.24939
6.0347
5.83278
5.64442
5.46475
5.30154
5.13629
5.00282
4.83583
4.7516
4.53638
0.554922
0.650537
0.894054
2.54468
18.0086
6.76737
4.12266
2.99406
2.37323
1.98218
1.71331
1.51669
1.3664
1.24773
1.13472
1.03276
0.974675
0.924547
0.880793
0.84221
0.80787
0.777047
0.749173
0.723789
0.700597
0.677786
0.553676
0.642229
0.852102
2.20619
86.2583
19.0254
6.14891
3.85643
2.84938
2.28195
1.91957
1.66851
1.48401
1.34235
1.22995
1.12003
1.01991
0.964821
0.916973
0.874976
0.837758
0.804487
0.774504
0.747295
0.722437
0.699666
0.677203
0.551395
0.629407
0.78747
1.48353
6.2949
8.69148
4.63335
3.2261
2.50448
2.0668
1.77446
1.56585
1.40934
1.28721
1.18891
1.08962
0.997366
0.947466
0.903627
0.864744
0.829959
0.798598
0.770124
0.744112
0.720209
0.698202
0.676367
0.548637
0.616101
0.755055
1.09356
2.20023
6.5116
10.5118
6.86439
4.36448
3.17187
2.50451
2.08386
1.79733
1.59083
1.43532
1.31387
1.2161
1.13539
1.05081
0.970189
0.92651
0.887543
0.852482
0.820707
0.791732
0.765154
0.740657
0.717968
0.696945
0.675895
0.545731
0.60125
0.703187
0.904657
1.33222
2.01517
2.56059
2.56056
2.30632
2.03656
1.81109
1.63026
1.4855
1.36829
1.27186
1.19116
1.12251
1.0632
1.01122
0.943452
0.906075
0.872051
0.840897
0.81223
0.785739
0.761156
0.738261
0.716857
0.696883
0.676633
0.543399
0.589527
0.665969
0.791677
0.975461
1.19816
1.3717
1.44699
1.44515
1.4104
1.3536
1.29287
1.23337
1.17727
1.12531
1.07753
1.03366
0.993309
0.955937
0.92167
0.889852
0.860249
0.832632
0.806801
0.782582
0.759826
0.738405
0.71819
0.699201
0.679628
0.54221
0.583123
0.644902
0.733672
0.849957
0.979932
1.0924
1.1665
1.19903
1.20242
1.18962
1.16401
1.13309
1.09968
1.06559
1.03184
0.999042
0.96747
0.937195
0.908385
0.880968
0.854896
0.830119
0.80658
0.784214
0.762952
0.742733
0.723472
0.705292
0.686139
0.542676
0.583603
0.63998
0.712064
0.797714
0.888675
0.971069
1.03417
1.07364
1.09258
1.09582
1.08923
1.07461
1.05481
1.03199
1.00748
0.982144
0.956592
0.931214
0.906307
0.882039
0.85851
0.835776
0.81387
0.792802
0.772564
0.753149
0.734493
0.716861
0.697744
0.545504
0.593172
0.652882
0.721075
0.794432
0.867758
0.934201
0.988035
1.0263
1.04959
1.06
1.06006
1.05442
1.04211
1.02552
1.00631
0.985413
0.96351
0.941102
0.918565
0.896168
0.874102
0.852498
0.831447
0.811011
0.791217
0.77211
0.753597
0.736187
0.716575
0.552068
0.616408
0.689535
0.763874
0.835469
0.90155
0.959175
1.0058
1.04008
1.06234
1.07378
1.07578
1.0725
1.06342
1.04928
1.03222
1.0131
0.99261
0.971275
0.949506
0.927615
0.905836
0.884338
0.863244
0.842653
0.822598
0.803189
0.784219
0.766649
0.745814
0.565495
0.663477
0.764173
0.854861
0.932
0.995805
1.04725
1.0868
1.11492
1.1326
1.14066
1.14056
1.13593
1.1254
1.11043
1.09259
1.07267
1.05133
1.02908
1.00633
0.983407
0.960544
0.937934
0.915699
0.893976
0.872751
0.852275
0.832011
0.813849
0.790734
0.594057
0.759392
0.910494
1.02874
1.1155
1.17735
1.22114
1.25068
1.26858
1.27727
1.27696
1.27155
1.26001
1.24405
1.22466
1.20276
1.17908
1.15421
1.12864
1.10273
1.0768
1.05105
1.02571
1.00082
0.976633
0.952931
0.930355
0.907493
0.88825
0.861187
0.664533
0.975973
1.21637
1.37094
1.46278
1.51317
1.54024
1.55065
1.54956
1.54241
1.5273
1.50763
1.484
1.4573
1.42828
1.39762
1.3659
1.3336
1.30111
1.26873
1.23675
1.20531
1.17467
1.1447
1.11593
1.08753
1.06129
1.03346
1.01254
0.978543
0.896614
1.57489
1.95231
2.12034
2.18108
2.1827
2.1674
2.1349
2.09585
2.05436
2.01013
1.96417
1.91684
1.86887
1.82064
1.77244
1.72457
1.67731
1.63093
1.58561
1.54159
1.49883
1.45777
1.41773
1.38018
1.34235
1.30947
1.27154
1.2478
1.20054
2.2513
3.8851
4.19976
4.15297
4.01869
3.85041
3.69755
3.55743
3.42836
3.30847
3.19528
3.0875
2.98358
2.88518
2.79112
2.70065
2.61354
2.52971
2.44925
2.37208
2.29847
2.22782
2.16129
2.09636
2.03762
1.97628
1.92756
1.86524
1.8327
1.75471
25.3732
18.8423
15.4852
13.5965
12.3809
11.5193
10.847
10.2852
9.7932
9.34797
8.93765
8.55557
8.19801
7.8636
7.54979
7.255
6.97812
6.71821
6.47435
6.2455
6.03096
5.82909
5.64071
5.46092
5.29759
5.13207
4.99846
4.83107
4.74674
4.53102
0.551761
0.632777
0.825075
1.44837
5.58655
103.074
7.79115
4.42525
3.13096
2.44812
2.0298
1.74896
1.54775
1.39625
1.27765
1.18191
1.08713
0.99875
0.948709
0.90477
0.865801
0.830938
0.799508
0.770972
0.744905
0.720953
0.698908
0.677017
0.550634
0.626692
0.796258
1.29179
3.90045
60.1962
33.8296
6.44809
3.99345
2.92746
2.33373
1.95822
1.70079
1.5137
1.3714
1.25914
1.16797
1.07537
0.988408
0.940687
0.898545
0.86098
0.827223
0.796669
0.768831
0.743322
0.719818
0.698135
0.676544
0.548642
0.616125
0.755149
1.09409
2.205
6.52407
10.4919
6.88733
4.37683
3.17683
2.50706
2.08538
1.79828
1.59145
1.43572
1.31413
1.21628
1.13551
1.05089
0.970242
0.92655
0.887574
0.852506
0.820726
0.791747
0.765167
0.740667
0.717977
0.696952
0.6759
0.546265
0.604064
0.713253
0.938878
1.45976
2.34093
3.57064
3.43442
2.86863
2.39621
2.04917
1.79401
1.60193
1.45339
1.33549
1.23965
1.16002
1.09256
1.01934
0.948175
0.909413
0.874339
0.842372
0.813068
0.78607
0.761083
0.737869
0.716218
0.696041
0.675663
0.543937
0.592495
0.6763
0.822706
1.05052
1.47383
1.78827
1.88741
1.82721
1.70652
1.58067
1.46593
1.36569
1.2792
1.2045
1.13956
1.08259
1.03211
0.98695
0.926404
0.89273
0.861683
0.832933
0.806213
0.781299
0.757998
0.736148
0.715598
0.696328
0.676633
0.542178
0.583795
0.649908
0.75121
0.891103
1.05048
1.1855
1.26305
1.28678
1.27762
1.24939
1.21049
1.16836
1.12591
1.08463
1.04524
1.00798
0.972885
0.939768
0.908875
0.879783
0.852397
0.826589
0.802239
0.779238
0.757487
0.736895
0.717362
0.698944
0.679812
0.541458
0.579679
0.635779
0.712924
0.810142
0.91664
1.01201
1.08017
1.11783
1.13101
1.12756
1.11346
1.09149
1.06571
1.03795
1.00943
0.98091
0.952836
0.925448
0.899002
0.873529
0.84907
0.825632
0.803204
0.781763
0.76127
0.741693
0.722963
0.705237
0.686426
0.542264
0.581726
0.635111
0.701474
0.778223
0.858684
0.932483
0.990923
1.03044
1.05242
1.0601
1.05754
1.04811
1.03255
1.01342
0.992067
0.969438
0.946187
0.922757
0.899489
0.876598
0.854225
0.832463
0.811375
0.790996
0.771337
0.752411
0.734162
0.716886
0.698028
0.545318
0.592309
0.650559
0.71593
0.78493
0.853106
0.914907
0.965626
1.00284
1.02671
1.03878
1.04092
1.03718
1.02753
1.01305
0.995756
0.976553
0.956132
0.93501
0.913581
0.892136
0.870885
0.849978
0.829521
0.809592
0.79023
0.771491
0.753287
0.736156
0.716738
0.552017
0.616153
0.688719
0.761815
0.83131
0.89468
0.949642
0.994203
1.02736
1.04937
1.06124
1.06413
1.06159
1.05382
1.04086
1.02492
1.00682
0.987259
0.966754
0.945721
0.924478
0.903264
0.88226
0.861594
0.841374
0.821639
0.802509
0.783771
0.766423
0.745732
0.565511
0.663551
0.7642
0.854512
0.930768
0.993223
1.04312
1.08125
1.10833
1.12541
1.13336
1.13339
1.129
1.11897
1.10458
1.08733
1.068
1.04721
1.02548
1.00321
0.980719
0.958246
0.935983
0.914056
0.892606
0.87162
0.851358
0.83127
0.813288
0.790284
0.594096
0.759624
0.910985
1.02936
1.1159
1.17712
1.21998
1.24847
1.26549
1.27341
1.27276
1.26704
1.25533
1.23948
1.22029
1.19864
1.17526
1.1507
1.12543
1.09982
1.07418
1.0487
1.0236
0.998945
0.97496
0.95144
0.929035
0.906307
0.887218
0.860246
0.66457
0.976274
1.21714
1.37216
1.46415
1.51427
1.54073
1.55018
1.54844
1.54042
1.5245
1.5044
1.48045
1.45357
1.42451
1.39389
1.36228
1.33012
1.2978
1.26562
1.23384
1.20259
1.17213
1.14235
1.11374
1.08548
1.05939
1.03166
1.01088
0.97697
0.896639
1.57525
1.95334
2.12196
2.18301
2.18431
2.16855
2.13509
2.09513
2.0527
2.00763
1.96105
1.91328
1.865
1.81658
1.7683
1.72045
1.67326
1.62701
1.58183
1.53797
1.49537
1.45448
1.41459
1.3772
1.33949
1.30675
1.26889
1.24528
1.1981
2.25131
3.8856
4.20098
4.15435
4.02008
3.85102
3.69714
3.55578
3.42557
3.30468
3.19071
3.08238
2.97823
2.87944
2.78518
2.69466
2.6076
2.52391
2.44363
2.36665
2.29325
2.22279
2.15646
2.09167
2.03311
1.97184
1.92329
1.86097
1.82853
1.75068
25.3732
18.8416
15.4819
13.5897
12.37
11.5048
10.8295
10.2659
9.77321
9.32822
8.9188
8.53801
8.1819
7.84879
7.53627
7.24266
6.96681
6.70774
6.46454
6.23617
6.02197
5.82028
5.632
5.45213
5.28878
5.12296
4.98934
4.82148
4.73686
4.52162
0.548131
0.613349
0.743184
1.02198
1.82078
3.99403
6.0021
4.04587
3.1333
2.53184
2.1274
1.84289
1.63431
1.47583
1.35157
1.2514
1.16868
1.09893
1.03901
0.965525
0.923427
0.885653
0.851502
0.820427
0.791992
0.765838
0.741669
0.71923
0.698405
0.677457
0.547258
0.608875
0.727482
0.976508
1.61832
3.21461
4.62167
3.44318
2.82682
2.35715
2.01916
1.77166
1.58518
1.44068
1.32568
1.23192
1.1538
1.08744
1.03009
0.957584
0.917183
0.880752
0.84767
0.817452
0.789707
0.764109
0.740392
0.718318
0.697793
0.677094
0.545739
0.60129
0.703327
0.905195
1.33438
2.02239
2.568
2.5669
2.31124
2.03978
1.81318
1.63166
1.48647
1.36897
1.27234
1.19151
1.12276
1.06339
1.01136
0.943545
0.906148
0.872108
0.840942
0.812267
0.785769
0.76118
0.738281
0.716874
0.696897
0.676645
0.54394
0.592512
0.676354
0.822871
1.05096
1.47502
1.7897
1.88875
1.82844
1.70749
1.58138
1.46644
1.36606
1.27947
1.2047
1.13971
1.0827
1.0322
0.987014
0.926448
0.892765
0.861711
0.832955
0.806231
0.781314
0.75801
0.736158
0.715606
0.696336
0.676639
0.542255
0.584397
0.652551
0.759424
0.909715
1.15141
1.3491
1.45393
1.46883
1.43324
1.37545
1.31188
1.24923
1.19037
1.13618
1.08664
1.04139
0.999952
0.961882
0.909698
0.879866
0.851933
0.825708
0.801042
0.777801
0.755862
0.735122
0.715477
0.696964
0.677824
0.541089
0.57867
0.635695
0.717163
0.822936
0.939977
1.04433
1.11571
1.15174
1.16009
1.15173
1.13165
1.10495
1.07516
1.04413
1.01298
0.982358
0.952627
0.923914
0.896527
0.870286
0.845233
0.821339
0.798564
0.776862
0.756178
0.736465
0.717654
0.699848
0.681149
0.540845
0.576804
0.627941
0.695049
0.776129
0.863178
0.943153
1.00484
1.04452
1.06445
1.06911
1.06365
1.0505
1.03202
1.01048
0.987178
0.962996
0.938525
0.91414
0.890165
0.866747
0.843996
0.82198
0.800735
0.780275
0.760596
0.741696
0.723526
0.706284
0.687797
0.541993
0.580402
0.631316
0.692697
0.761544
0.832474
0.898038
0.951709
0.990392
1.01438
1.02572
1.02685
1.02183
1.01063
0.995129
0.976987
0.957138
0.936266
0.914864
0.893313
0.871869
0.850715
0.829981
0.809756
0.790102
0.771052
0.752637
0.734811
0.717914
0.699289
0.545268
0.591983
0.649257
0.712315
0.777426
0.840747
0.897996
0.945487
0.981287
1.00531
1.01865
1.02268
1.02058
1.01346
1.00109
0.985718
0.968235
0.949331
0.929536
0.909258
0.888803
0.868401
0.84822
0.828381
0.808979
0.790063
0.771705
0.753815
0.736981
0.717725
0.552088
0.616396
0.688864
0.761174
0.828953
0.889847
0.942158
0.984534
1.01633
1.03782
1.04987
1.05347
1.05153
1.0449
1.03307
1.0182
1.00112
0.982479
0.962809
0.94252
0.921934
0.901297
0.880795
0.860565
0.840723
0.821313
0.802465
0.783959
0.766847
0.746266
0.565627
0.664064
0.765108
0.855488
0.931224
0.992543
1.04094
1.07755
1.10342
1.11966
1.12726
1.12727
1.12296
1.11324
1.09933
1.08261
1.0638
1.04354
1.0223
1.00049
0.978415
0.956324
0.934406
0.912785
0.891607
0.870859
0.850811
0.830892
0.813108
0.790181
0.594208
0.760217
0.912253
1.03119
1.11787
1.17867
1.22065
1.248
1.26399
1.27087
1.26971
1.26344
1.25139
1.23546
1.21632
1.19483
1.17164
1.14733
1.12233
1.09699
1.0716
1.04638
1.02152
0.997082
0.973301
0.949962
0.927732
0.90513
0.886215
0.859307
0.664652
0.976853
1.21857
1.37444
1.46692
1.51694
1.54282
1.55117
1.54864
1.53938
1.52257
1.50174
1.47722
1.44998
1.4207
1.38999
1.35838
1.3263
1.29411
1.26208
1.23047
1.19941
1.16913
1.13952
1.11108
1.08297
1.05704
1.02941
1.00879
0.974956
0.896682
1.57582
1.95491
2.12445
2.18604
2.18709
2.17081
2.13619
2.09506
2.05135
2.00516
1.95768
1.90923
1.86042
1.81164
1.76316
1.71522
1.66805
1.62187
1.57681
1.53311
1.49068
1.44997
1.41024
1.37303
1.33545
1.30289
1.26512
1.24164
1.19463
2.25132
3.88625
4.20257
4.15616
4.0219
3.85182
3.69655
3.55354
3.42172
3.29939
3.18427
3.07507
2.97046
2.8711
2.77648
2.68581
2.59876
2.51518
2.4351
2.35835
2.2852
2.21499
2.14891
2.08433
2.026
1.96488
1.91651
1.85441
1.82165
1.74497
25.3732
18.8407
15.4778
13.5809
12.3556
11.4849
10.805
10.2383
9.74373
9.2982
8.88919
8.50947
8.15479
7.82307
7.51203
7.21987
6.94535
6.68744
6.44521
6.21763
6.00404
5.8028
5.61483
5.43516
5.27186
5.1063
4.9715
4.80813
4.70502
4.51827
0.545062
0.597471
0.68914
0.855238
1.12422
1.59592
1.96762
1.77917
1.70529
1.60434
1.50171
1.40626
1.32073
1.24511
1.17839
1.11935
1.06678
1.01964
0.976835
0.938291
0.90305
0.870685
0.840829
0.813175
0.787467
0.763485
0.741056
0.720012
0.700333
0.680197
0.544456
0.594549
0.680392
0.830169
1.06418
1.47878
1.8041
1.64624
1.60723
1.53084
1.44675
1.3647
1.28898
1.22061
1.1593
1.10435
1.05492
1.01022
0.969358
0.93234
0.898316
0.866932
0.837869
0.81086
0.785677
0.762128
0.740054
0.719302
0.699866
0.67993
0.543408
0.58957
0.666098
0.792047
0.976339
1.19968
1.37357
1.44885
1.4469
1.41185
1.35473
1.29375
1.23405
1.17779
1.12571
1.07784
1.0339
0.993499
0.956087
0.921789
0.889946
0.860326
0.832694
0.806852
0.782624
0.759861
0.738434
0.718215
0.699222
0.679645
0.542183
0.583819
0.649976
0.751383
0.891477
1.0511
1.18627
1.26385
1.28756
1.27831
1.24996
1.21095
1.16873
1.1262
1.08486
1.04542
1.00812
0.973001
0.939861
0.90895
0.879844
0.852446
0.82663
0.802272
0.779266
0.75751
0.736915
0.717379
0.698958
0.679824
0.541091
0.578679
0.63572
0.71722
0.82305
0.940164
1.04457
1.11596
1.15199
1.16032
1.15194
1.13182
1.10509
1.07528
1.04423
1.01306
0.98242
0.952678
0.923955
0.89656
0.870314
0.845256
0.821358
0.798579
0.776875
0.756189
0.736475
0.717662
0.699855
0.681155
0.540456
0.575483
0.626163
0.693912
0.776946
0.866693
0.94916
1.01208
1.05174
1.07071
1.07405
1.06731
1.05261
1.03293
1.01039
0.98626
0.961419
0.936439
0.911664
0.88742
0.863795
0.840888
0.818753
0.797426
0.776914
0.757211
0.738304
0.720146
0.702907
0.68453
0.540632
0.575541
0.623529
0.683592
0.753068
0.82603
0.893949
0.949234
0.988492
1.01215
1.02266
1.0228
1.01675
1.00435
0.988056
0.96926
0.948902
0.92765
0.905975
0.88425
0.862707
0.841516
0.820795
0.800624
0.781055
0.762115
0.743825
0.72615
0.709351
0.69108
0.542073
0.580461
0.630252
0.688385
0.751495
0.815117
0.873889
0.923096
0.960213
0.985013
0.9987
1.00288
1.00064
0.993319
0.980921
0.965554
0.94814
0.929378
0.909788
0.88977
0.869621
0.84956
0.829744
0.81029
0.791282
0.772768
0.754802
0.737337
0.720781
0.702284
0.545521
0.592856
0.650264
0.712269
0.774779
0.834363
0.887751
0.93225
0.966395
0.99005
1.00401
1.00938
1.00841
1.0032
0.992607
0.97883
0.962801
0.945196
0.926544
0.907259
0.887661
0.867995
0.84844
0.829135
0.810185
0.791649
0.773612
0.755976
0.739405
0.720209
0.552411
0.617672
0.691001
0.763538
0.830544
0.889731
0.939872
0.980192
1.01048
1.03111
1.04293
1.04682
1.04519
1.03925
1.02824
1.01418
0.997881
0.979972
0.960969
0.941281
0.921229
0.901062
0.880971
0.861098
0.841564
0.822415
0.803796
0.785462
0.768561
0.747995
0.56594
0.665438
0.767731
0.859061
0.935044
0.995802
1.04304
1.07822
1.10278
1.11792
1.12483
1.12456
1.12
1.11021
1.09652
1.08007
1.06158
1.04165
1.02075
0.999263
0.977498
0.955689
0.93403
0.912641
0.891672
0.871105
0.851225
0.831422
0.81382
0.790884
0.594459
0.761492
0.914957
1.03525
1.12274
1.18358
1.22493
1.25116
1.26599
1.27155
1.26967
1.26247
1.24983
1.23349
1.21413
1.19255
1.16937
1.14513
1.12024
1.09504
1.06982
1.04476
1.02006
0.995781
0.972153
0.948947
0.926858
0.904338
0.885596
0.858678
0.664816
0.977931
1.22114
1.37853
1.47207
1.52234
1.54777
1.55495
1.55148
1.54068
1.52272
1.5008
1.47542
1.44751
1.41775
1.38673
1.35494
1.32277
1.29057
1.25859
1.22707
1.19612
1.16597
1.13648
1.10819
1.0802
1.05441
1.02686
1.00642
0.972588
0.896761
1.57672
1.9573
2.12824
2.19076
2.19171
2.17488
2.13894
2.09635
2.051
2.00335
1.9546
1.90514
1.85553
1.80615
1.75725
1.70906
1.66177
1.61557
1.57057
1.52698
1.48468
1.44413
1.40456
1.36753
1.33009
1.29771
1.26006
1.23674
1.18974
2.25134
3.8871
4.2046
4.15848
4.02423
3.85286
3.69578
3.5506
3.41664
3.29233
3.17558
3.06509
2.95968
2.85949
2.76432
2.67336
2.58622
2.50272
2.42281
2.34631
2.27346
2.20354
2.13779
2.07348
2.01547
1.95455
1.90649
1.84446
1.81227
1.73461
25.3732
18.8397
15.4727
13.5698
12.3369
11.4586
10.7719
10.1999
9.70184
9.25444
8.8449
8.46564
8.11207
7.78167
7.47222
7.18173
6.90884
6.65246
6.41162
6.18523
5.97269
5.77229
5.58509
5.40589
5.24326
5.07751
4.94451
4.77615
4.69209
4.47565
0.543269
0.587989
0.657943
0.764415
0.911832
1.07609
1.21314
1.29965
1.31846
1.3051
1.2729
1.23181
1.1879
1.14395
1.10135
1.06076
1.02242
0.986381
0.952465
0.920693
0.890859
0.862798
0.836375
0.811471
0.787973
0.765771
0.744771
0.72486
0.706131
0.686534
0.542882
0.586205
0.653111
0.752801
0.888055
1.03742
1.16451
1.24857
1.27412
1.26697
1.24268
1.20735
1.16821
1.12811
1.08859
1.05046
1.0141
0.979648
0.947024
0.9163
0.887321
0.85996
0.834116
0.809692
0.786592
0.76472
0.743994
0.724311
0.705775
0.686336
0.542218
0.583161
0.645004
0.733919
0.850461
0.980732
1.09341
1.1676
1.2001
1.20337
1.19045
1.16468
1.13364
1.10013
1.06595
1.03214
0.999281
0.967664
0.937353
0.908514
0.881074
0.854984
0.830192
0.80664
0.784265
0.762995
0.742769
0.723503
0.705319
0.686161
0.541464
0.579703
0.635841
0.713065
0.810414
0.917065
1.01255
1.08076
1.11842
1.13155
1.12806
1.11388
1.09184
1.066
1.03819
1.00963
0.981073
0.952971
0.925559
0.899094
0.873605
0.849133
0.825685
0.803249
0.781801
0.761302
0.74172
0.722987
0.705257
0.686442
0.540848
0.576817
0.627973
0.695116
0.776252
0.863367
0.943395
1.00511
1.0448
1.06472
1.06935
1.06387
1.05068
1.03218
1.01061
0.98729
0.96309
0.938603
0.914206
0.890221
0.866793
0.844035
0.822013
0.800763
0.780298
0.760617
0.741713
0.723541
0.706297
0.687808
0.540633
0.575545
0.62354
0.683615
0.753109
0.826091
0.894027
0.949323
0.988586
1.01224
1.02275
1.02288
1.01682
1.00441
0.988109
0.969306
0.948941
0.927683
0.906003
0.884274
0.862728
0.841534
0.82081
0.800637
0.781066
0.762124
0.743833
0.726157
0.709357
0.691085
0.54113
0.577057
0.624621
0.681299
0.743869
0.807701
0.86706
0.916853
0.954366
0.979335
0.993033
0.99715
0.994797
0.987299
0.974838
0.959409
0.94196
0.923191
0.903623
0.883655
0.863579
0.843607
0.823891
0.804546
0.785652
0.767258
0.749409
0.732072
0.715604
0.697343
0.542777
0.582945
0.633801
0.691189
0.751285
0.810219
0.864049
0.909466
0.944605
0.969141
0.98384
0.989867
0.98921
0.984431
0.974356
0.960955
0.945312
0.928103
0.909855
0.890981
0.871798
0.852546
0.833403
0.814503
0.795948
0.777801
0.760132
0.742885
0.726572
0.708008
0.546316
0.595854
0.655252
0.718143
0.779945
0.837399
0.888012
0.929947
0.962281
0.985013
0.998833
1.00469
1.00422
0.999982
0.990583
0.977785
0.962698
0.945954
0.928069
0.909455
0.890434
0.871257
0.852114
0.833151
0.814482
0.796172
0.778322
0.760808
0.744417
0.7251
0.55319
0.620789
0.696614
0.771007
0.838683
0.897292
0.946001
0.984572
1.01326
1.03266
1.0437
1.04726
1.04551
1.03957
1.02885
1.01513
0.999189
0.981641
0.962985
0.943617
0.923853
0.903939
0.884068
0.86438
0.845003
0.825979
0.80747
0.789188
0.772432
0.751712
0.566615
0.668363
0.773363
0.867084
0.944523
1.00559
1.05217
1.08611
1.10924
1.12298
1.12875
1.12781
1.12249
1.11209
1.09817
1.08159
1.06306
1.04313
1.02229
1.00087
0.979196
0.957479
0.93591
0.914605
0.893714
0.873208
0.853399
0.833604
0.816137
0.793041
0.594968
0.764006
0.920191
1.04311
1.13245
1.19402
1.2351
1.26028
1.27379
1.27769
1.27477
1.26616
1.2525
1.23528
1.2153
1.19325
1.16976
1.14529
1.12027
1.095
1.06974
1.04468
1.02001
0.995762
0.972181
0.94901
0.92699
0.90446
0.88587
0.858818
0.665136
0.979924
1.22573
1.38571
1.48114
1.53215
1.55735
1.56327
1.55869
1.54596
1.52645
1.503
1.47633
1.44733
1.41673
1.38506
1.35279
1.32029
1.28787
1.25576
1.22417
1.1932
1.16307
1.13363
1.1054
1.07746
1.05179
1.02425
1.00398
0.970096
0.896909
1.57821
1.96112
2.13422
2.19819
2.19924
2.18182
2.14436
2.09994
2.05249
2.00292
1.95244
1.90155
1.85074
1.80043
1.75084
1.70217
1.65457
1.6082
1.56313
1.51955
1.47732
1.4369
1.39744
1.36059
1.32326
1.29109
1.25353
1.23036
1.18352
2.25137
3.88825
4.20734
4.16158
4.02735
3.85429
3.6948
3.5468
3.41
3.28304
3.16404
3.05174
2.94507
2.84374
2.74778
2.65634
2.569
2.4855
2.40575
2.32951
2.257
2.18743
2.12209
2.05811
2.00054
1.93989
1.89224
1.8305
1.79842
1.72139
25.3732
18.8385
15.4663
13.5555
12.3124
11.4236
10.7271
10.1472
9.64322
9.19213
8.78071
8.40103
8.04807
7.71883
7.41102
7.12245
6.85158
6.59721
6.35828
6.13367
5.92276
5.72379
5.53793
5.35976
5.19831
5.0332
4.9012
4.7334
4.64979
4.43435
0.543297
0.586397
0.647108
0.727538
0.826444
0.932192
1.02635
1.09617
1.13411
1.14756
1.14407
1.1307
1.10921
1.08371
1.05603
1.02741
0.998632
0.970182
0.942363
0.915413
0.889435
0.864476
0.840544
0.817631
0.795718
0.774768
0.754754
0.735595
0.717531
0.698068
0.543068
0.585369
0.644482
0.721805
0.815723
0.915732
1.00548
1.07315
1.11201
1.12764
1.12653
1.116
1.09687
1.07343
1.0475
1.02034
0.99279
0.965359
0.9384
0.912168
0.88679
0.862334
0.838822
0.816261
0.794644
0.773943
0.75414
0.735157
0.717243
0.697903
0.542683
0.583633
0.640057
0.712229
0.79802
0.889142
0.97167
1.03484
1.07433
1.09323
1.09641
1.08976
1.07505
1.05518
1.03231
1.00774
0.982366
0.956778
0.931369
0.906438
0.882148
0.858602
0.835854
0.813936
0.792858
0.772611
0.75319
0.734528
0.716892
0.697769
0.542269
0.581747
0.635162
0.70158
0.778414
0.858972
0.932853
0.991343
1.03088
1.05284
1.06049
1.0579
1.04842
1.03281
1.01365
0.99226
0.969602
0.946326
0.922874
0.899588
0.876681
0.854296
0.832523
0.811426
0.79104
0.771375
0.752444
0.73419
0.71691
0.698048
0.541996
0.580415
0.631346
0.692757
0.761649
0.832631
0.89824
0.951942
0.990638
1.01463
1.02595
1.02707
1.02202
1.0108
0.995275
0.977112
0.957245
0.936358
0.914943
0.893381
0.871926
0.850764
0.830023
0.809792
0.790133
0.771078
0.75266
0.734831
0.717932
0.699304
0.542074
0.580468
0.630267
0.688414
0.751545
0.815189
0.873984
0.923206
0.960332
0.985133
0.998817
1.00299
1.00075
0.993409
0.981
0.965623
0.9482
0.92943
0.909833
0.889809
0.869655
0.849589
0.829769
0.810312
0.7913
0.772784
0.754816
0.737349
0.720792
0.702292
0.542778
0.582948
0.633807
0.691199
0.751302
0.810243
0.864081
0.909504
0.944647
0.969184
0.983883
0.989908
0.989248