/*--------------------------------*- C++ -*----------------------------------*\
  =========                 |
  \\      /  F ield         | OpenFOAM: The Open Source CFD Toolbox
   \\    /   O peration     | Website:  https://openfoam.org
    \\  /    A nd           | Version:  7
     \\/     M anipulation  |
\*---------------------------------------------------------------------------*/
FoamFile
{
    version     2.0;
    format      ascii;
    class       volScalarField;
    location    "300";
    object      p;
}
// * * * * * * * * * * * * * * * * * * * * * * * * * * * * * * * * * * * * * //

dimensions      [0 2 -2 0 0 0 0];

internalField   nonuniform List<scalar> 
27370
(
121.244
190.85
291.622
500.89
-41.0965
-25.34
-15.7006
-9.42361
-5.24565
-2.57213
-0.92313
0.0766638
0.703535
1.19388
1.13634
0.910465
0.858835
0.780749
0.69128
0.608559
0.532831
0.45936
0.41618
0.291324
0.610806
105.057
157.787
259.422
435.088
-40.4505
-24.1142
-14.7215
-8.76182
-4.86371
-2.37219
-0.827143
0.114704
0.701158
1.12961
1.10644
0.910723
0.851718
0.773877
0.68506
0.602487
0.526873
0.454739
0.407035
0.301546
0.564221
85.7032
109.381
192.23
315.788
-55.3327
-34.3519
-20.2053
-12.2123
-7.24028
-4.01206
-1.92896
-0.61584
0.197369
0.704437
1.04891
1.05057
0.891978
0.830141
0.752803
0.666813
0.586323
0.51235
0.441942
0.392909
0.293021
0.52883
68.4815
71.1123
110.254
183.661
206.229
-164.087
-54.5748
-28.7863
-16.3536
-9.5914
-5.57394
-3.03904
-1.41023
-0.371991
0.281933
0.693874
0.930658
0.971195
0.856978
0.795862
0.720072
0.63868
0.561757
0.490564
0.422573
0.373083
0.277358
0.482452
52.562
51.4203
59.7022
85.6955
69.3531
11.7524
-65.1113
-61.271
-34.8732
-19.849
-11.4095
-6.55039
-3.66022
-1.87897
-0.757121
-0.0469778
0.401078
0.667949
0.796554
0.875744
0.803825
0.747354
0.675148
0.60007
0.528329
0.461284
0.396741
0.347637
0.256708
0.426516
38.271
37.3702
37.1751
34.9868
20.5905
-2.14026
-28.1298
-26.9073
-18.2147
-11.0355
-6.55252
-3.73917
-1.95854
-0.833741
-0.124819
0.316256
0.58319
0.722847
0.800764
0.785608
0.739318
0.683532
0.618476
0.551451
0.486408
0.424908
0.364977
0.317255
0.232191
0.364594
26.8997
25.7527
23.9333
20.0906
11.5025
-5.16079
-14.0456
-16.2697
-11.6423
-7.63447
-4.80836
-2.81907
-1.48264
-0.609926
-0.0480794
0.305912
0.520925
0.636719
0.680009
0.689753
0.654189
0.606396
0.551342
0.4937
0.436772
0.382141
0.328034
0.282861
0.205023
0.300092
18.6988
17.4478
15.2677
10.9205
4.87064
-3.62524
-8.62577
-9.74076
-7.55982
-5.32077
-3.49259
-2.0991
-1.11467
-0.449345
-0.00989551
0.271825
0.444334
0.539347
0.580341
0.583416
0.557107
0.519521
0.475178
0.427864
0.380249
0.333699
0.286664
0.245392
0.176355
0.236292
13.1536
11.8363
9.56346
5.63702
1.25366
-3.47618
-6.02266
-6.49032
-5.28117
-3.87667
-2.63586
-1.64347
-0.909819
-0.39477
-0.0442225
0.186901
0.332206
0.415542
0.455122
0.462923
0.448586
0.42291
0.390469
0.354585
0.317417
0.280119
0.241438
0.205596
0.147121
0.176088
9.69566
8.29137
5.98503
2.64313
-0.50692
-3.26922
-4.60753
-4.72717
-3.94055
-2.99028
-2.11376
-1.38643
-0.828865
-0.421398
-0.134106
0.0623894
0.191527
0.270858
0.314046
0.3311
0.329649
0.317141
0.29773
0.274267
0.248564
0.22163
0.192605
0.163859
0.117905
0.121765
7.80363
6.29552
3.98529
1.21459
-1.08894
-2.81084
-3.58432
-3.5908
-3.07175
-2.42126
-1.79628
-1.25925
-0.83121
-0.50476
-0.264317
-0.0919043
0.028348
0.108876
0.159606
0.188242
0.200756
0.202556
0.197141
0.186964
0.173627
0.158081
0.139987
0.120084
0.0887952
0.0748433
7.0067
5.42204
3.21212
0.979748
-0.773929
-2.00777
-2.60091
-2.67536
-2.4013
-2.00058
-1.5831
-1.20286
-0.881799
-0.623101
-0.421358
-0.267373
-0.151934
-0.0672323
-0.00670192
0.0350613
0.0624608
0.0794057
0.0887133
0.0925044
0.0922584
0.0889591
0.0829558
0.073601
0.0592403
0.0359498
6.88053
5.32858
3.40503
1.64758
0.210678
-0.869118
-1.51637
-1.78434
-1.77578
-1.62133
-1.40355
-1.17156
-0.952188
-0.75814
-0.593088
-0.455991
-0.344062
-0.254088
-0.182833
-0.127226
-0.0844785
-0.0519503
-0.0275084
-0.00934278
0.00395336
0.0134696
0.020435
0.0231134
0.027826
0.00462972
7.00632
5.72092
4.26012
2.87537
1.59468
0.497159
-0.319611
-0.845362
-1.12214
-1.2238
-1.21233
-1.13371
-1.02072
-0.894849
-0.769068
-0.650643
-0.543314
-0.448694
-0.367053
-0.297802
-0.239868
-0.191832
-0.152266
-0.119713
-0.0928035
-0.0703546
-0.0500673
-0.0343117
-0.00919177
-0.0219352
6.95069
6.24041
5.27415
4.1748
3.005
1.87057
0.885305
0.11264
-0.435662
-0.787468
-0.982927
-1.0623
-1.06147
-1.00941
-0.92774
-0.831827
-0.732054
-0.635108
-0.544979
-0.463724
-0.39207
-0.329859
-0.276361
-0.230578
-0.191134
-0.156847
-0.12448
-0.0956806
-0.0519318
-0.0465188
6.83
6.53997
5.93089
5.0628
4.02809
2.92799
1.87375
0.956583
0.22506
-0.314112
-0.679111
-0.899337
-1.00761
-1.03498
-1.00765
-0.946165
-0.865824
-0.777507
-0.688544
-0.603546
-0.525126
-0.454488
-0.391804
-0.336718
-0.288142
-0.245039
-0.203932
-0.165408
-0.107476
-0.0803895
105.008
157.798
259.22
434.291
-40.1645
-23.9549
-14.6798
-8.7514
-4.86092
-2.37138
-0.826948
0.114726
0.701125
1.12937
1.10641
0.910719
0.851719
0.77389
0.685077
0.602506
0.526892
0.454756
0.40705
0.301554
0.564233
93.4408
130.072
228.132
381.329
-38.2704
-22.488
-13.6556
-8.1129
-4.50186
-2.1838
-0.736112
0.151549
0.7016
1.07813
1.07853
0.907951
0.843093
0.76566
0.677822
0.595664
0.520381
0.44951
0.398137
0.312085
0.514909
78.368
91.6006
167.285
266.555
377.448
-56.9957
-32.7626
-19.1113
-11.4483
-6.75239
-3.72759
-1.77522
-0.539331
0.22903
0.705422
1.00747
1.02448
0.885662
0.820001
0.743466
0.658672
0.578866
0.505429
0.436329
0.38414
0.302824
0.481362
62.9781
63.4111
90.455
158.81
167.963
23.9073
-139.462
-52.5118
-27.7304
-15.691
-9.1351
-5.26972
-2.85021
-1.30119
-0.313916
0.307948
0.696626
0.903292
0.948322
0.84673
0.783885
0.709359
0.629324
0.553399
0.482995
0.416425
0.364338
0.285609
0.43925
48.5441
47.4519
52.2045
74.3927
59.5835
1.03108
-56.0667
-54.7031
-32.6184
-18.897
-10.9272
-6.27126
-3.49009
-1.77726
-0.699858
-0.0181777
0.411191
0.66644
0.781801
0.858414
0.790259
0.733668
0.663148
0.589548
0.519077
0.453057
0.390053
0.338947
0.263175
0.388288
35.5454
34.5531
33.6601
29.8057
17.037
-1.21431
-24.7496
-24.1155
-16.7076
-10.3093
-6.1527
-3.51082
-1.8293
-0.764196
-0.0924449
0.32558
0.577895
0.710181
0.787243
0.76857
0.723246
0.668666
0.60531
0.539911
0.476363
0.41609
0.3578
0.30869
0.236769
0.331793
25.1441
23.9886
21.9851
17.7155
9.55012
-4.94237
-12.728
-14.7317
-10.8375
-7.18098
-4.53407
-2.6612
-1.39448
-0.564125
-0.0289837
0.308127
0.512276
0.621311
0.661046
0.670035
0.636834
0.590547
0.53725
0.481384
0.426105
0.372857
0.320467
0.27451
0.207699
0.272914
17.5893
16.3914
14.2045
9.91823
4.09551
-3.56111
-8.04922
-9.04864
-7.15331
-5.06915
-3.34317
-2.01941
-1.07692
-0.436869
-0.0130295
0.259385
0.426527
0.518776
0.558409
0.562812
0.53872
0.502922
0.460506
0.415069
0.369192
0.324137
0.278847
0.23736
0.177222
0.214641
12.4631
11.2306
9.02196
5.23058
1.00653
-3.33359
-5.71063
-6.13205
-5.0513
-3.73314
-2.55327
-1.60355
-0.896922
-0.398131
-0.0574028
0.168205
0.310781
0.393276
0.433187
0.442331
0.429951
0.406193
0.375707
0.341694
0.306271
0.270515
0.233554
0.197998
0.14637
0.159618
9.26565
7.96113
5.74332
2.53154
-0.518595
-3.10963
-4.39347
-4.51194
-3.79773
-2.90133
-2.06474
-1.36624
-0.827389
-0.431471
-0.150934
0.0419426
0.169558
0.248789
0.292782
0.311235
0.311614
0.300964
0.283402
0.261712
0.23768
0.212262
0.184866
0.156823
0.115814
0.109932
7.52585
6.1245
3.90966
1.24427
-0.996669
-2.6495
-3.4146
-3.4402
-2.96938
-2.35724
-1.76175
-1.24631
-0.8326
-0.515301
-0.280266
-0.110748
0.00831609
0.08882
0.140281
0.170141
0.184197
0.187609
0.183816
0.175216
0.16339
0.14926
0.132639
0.113751
0.0857198
0.0669719
6.81167
5.33551
3.21623
1.05876
-0.654715
-1.86085
-2.46049
-2.55777
-2.31836
-1.94688
-1.55262
-1.18966
-0.880647
-0.629957
-0.433211
-0.282112
-0.168076
-0.0837391
-0.0228739
0.0196905
0.0481902
0.0663653
0.0769616
0.0820466
0.0830754
0.0810224
0.0762709
0.0681272
0.0556019
0.0313001
6.72624
5.27905
3.43016
1.72154
0.313361
-0.751427
-1.4046
-1.68995
-1.70519
-1.57242
-1.37271
-1.15482
-0.945875
-0.75917
-0.599073
-0.465157
-0.3551
-0.266044
-0.195025
-0.139176
-0.0958601
-0.0625682
-0.0372424
-0.0181285
-0.00385152
0.00668467
0.0146356
0.0185993
0.0240372
0.0024256
6.87075
5.67319
4.26405
2.91269
1.6574
0.575438
-0.239628
-0.773051
-1.06315
-1.17889
-1.18036
-1.1127
-1.00845
-0.889225
-0.768322
-0.65335
-0.548358
-0.455217
-0.374404
-0.305498
-0.247552
-0.199257
-0.159256
-0.126148
-0.098605
-0.0754235
-0.0544625
-0.0375088
-0.0124508
-0.022297
6.8453
6.17086
5.23621
4.16315
3.01776
1.90301
0.929365
0.160676
-0.389657
-0.746849
-0.949246
-1.0359
-1.04189
-0.995767
-0.919037
-0.827066
-0.730328
-0.635628
-0.54709
-0.466893
-0.395876
-0.333973
-0.280536
-0.234622
-0.194913
-0.160215
-0.127465
-0.0978053
-0.054382
-0.0460222
6.74033
6.45642
5.86482
5.01531
3.99996
2.91902
1.88082
0.974902
0.249675
-0.287187
-0.652737
-0.875367
-0.987029
-1.01811
-0.994383
-0.936168
-0.858641
-0.772643
-0.685519
-0.601925
-0.524528
-0.454595
-0.392355
-0.337496
-0.288981
-0.245779
-0.204515
-0.165574
-0.107825
-0.0792703
85.6836
109.461
192.326
316.113
-54.6458
-34.1391
-20.0722
-12.1551
-7.21929
-4.00483
-1.92658
-0.615201
0.197379
0.704225
1.04843
1.05055
0.891966
0.830144
0.752839
0.666862
0.586378
0.512406
0.441993
0.392953
0.293051
0.528864
78.3715
91.6508
167.429
266.966
378.37
-57.5132
-32.7073
-19.0586
-11.42
-6.74052
-3.72318
-1.77372
-0.538976
0.228947
0.705147
1.00709
1.02438
0.885612
0.819977
0.743472
0.658694
0.578896
0.505462
0.436362
0.384169
0.302845
0.481386
67.488
69.2022
121.593
186.218
225.608
-55.687
-29.5409
-16.8404
-9.88452
-5.74436
-3.13008
-1.45007
-0.380561
0.290012
0.704481
0.944856
0.973616
0.85961
0.794575
0.719794
0.638314
0.561156
0.48982
0.422668
0.370042
0.293374
0.449466
54.5627
53.1552
64.67
109.358
91.061
20.5998
-93.861
-90.0088
-46.5866
-25.075
-14.152
-8.14208
-4.62765
-2.45922
-1.08312
-0.207343
0.345329
0.688147
0.851059
0.901103
0.816873
0.755768
0.683904
0.607426
0.534457
0.466454
0.402083
0.350018
0.275961
0.409554
42.2154
40.8864
41.9493
43.7667
46.7422
-0.0208843
-39.9456
-42.3979
-27.8579
-16.7765
-9.85781
-5.67625
-3.14342
-1.57996
-0.597951
0.0227693
0.413304
0.643602
0.737607
0.814268
0.757111
0.703088
0.636008
0.566152
0.498904
0.435571
0.375028
0.324449
0.253374
0.361234
31.1763
30.0505
28.775
25.5766
12.5491
-5.69201
-19.0884
-20.0466
-14.3434
-9.09787
-5.5166
-3.16685
-1.64766
-0.67749
-0.0629623
0.320453
0.551867
0.672927
0.744328
0.72706
0.687153
0.636253
0.576796
0.515257
0.455138
0.397788
0.342196
0.29412
0.226898
0.307682
22.3196
21.2144
19.2828
14.9544
7.13059
-3.71076
-11.1616
-12.3958
-9.47748
-6.45178
-4.12631
-2.44258
-1.28715
-0.522218
-0.0262106
0.287702
0.478416
0.580565
0.618116
0.627666
0.599073
0.556975
0.507781
0.455854
0.404129
0.353974
0.304469
0.260021
0.197861
0.251903
15.8136
14.735
12.7106
8.65112
3.12515
-3.23183
-7.17559
-7.94637
-6.45342
-4.66048
-3.11314
-1.90624
-1.03459
-0.435803
-0.0361888
0.222779
0.383155
0.472988
0.513029
0.520058
0.50043
0.468926
0.430671
0.389172
0.346881
0.305006
0.262715
0.22314
0.167536
0.196742
11.3689
10.2795
8.26983
4.74214
0.774877
-3.04384
-5.19976
-5.56265
-4.66135
-3.49677
-2.42454
-1.54862
-0.888856
-0.41744
-0.0924435
0.124973
0.264197
0.346481
0.388192
0.400557
0.392347
0.372747
0.346289
0.316076
0.284151
0.251554
0.217608
0.184265
0.136973
0.144728
8.5984
7.44537
5.42663
2.43624
-0.433662
-2.79968
-4.01821
-4.15224
-3.5481
-2.74957
-1.98556
-1.33848
-0.832942
-0.457245
-0.188129
-0.00101564
0.12461
0.204328
0.250396
0.271941
0.276035
0.269169
0.255298
0.237114
0.216357
0.193957
0.169482
0.143823
0.106858
0.0978634
7.1101
5.86214
3.83146
1.33912
-0.784851
-2.3447
-3.10572
-3.17401
-2.78375
-2.24287
-1.70194
-1.22599
-0.838636
-0.537997
-0.312707
-0.148282
-0.0311392
0.0495712
0.10263
0.134974
0.152041
0.15862
0.157983
0.152442
0.143532
0.132157
0.118242
0.10176
0.0773796
0.0574809
6.53055
5.20337
3.24368
1.2142
-0.422574
-1.58919
-2.20262
-2.34355
-2.16454
-1.84736
-1.49629
-1.16552
-0.879084
-0.643412
-0.456079
-0.310422
-0.199024
-0.115374
-0.0538665
-0.00977662
0.020803
0.041327
0.0543805
0.0619341
0.0653919
0.0657082
0.0633323
0.0574648
0.0480871
0.0241247
6.50524
5.19338
3.47055
1.85277
0.500354
-0.538949
-1.20088
-1.51665
-1.57315
-1.47989
-1.31356
-1.12197
-0.932656
-0.759947
-0.609403
-0.481695
-0.375358
-0.288199
-0.21776
-0.161561
-0.117256
-0.082577
-0.055624
-0.0347478
-0.0186357
-0.00622091
0.0036684
0.00962936
0.0176008
-0.00268538
6.6697
5.57831
4.25719
2.97104
1.76366
0.710677
-0.0979315
-0.642194
-0.953637
-1.0936
-1.11807
-1.07041
-0.982481
-0.875979
-0.764638
-0.656608
-0.55645
-0.46648
-0.387554
-0.319555
-0.261789
-0.21315
-0.172436
-0.138355
-0.109654
-0.0851715
-0.0627986
-0.0442638
-0.017396
-0.0254929
6.65952
6.04266
5.16224
4.13736
3.0355
1.95591
1.00427
0.244257
-0.308108
-0.673832
-0.887915
-0.987147
-1.00515
-0.969684
-0.90193
-0.817223
-0.726154
-0.635717
-0.550245
-0.472129
-0.402399
-0.341162
-0.28791
-0.241811
-0.201634
-0.166237
-0.13263
-0.101902
-0.0574059
-0.0474114
6.56724
6.30533
5.74449
4.92944
3.95064
2.90534
1.89697
1.01199
0.298414
-0.234414
-0.601371
-0.828865
-0.947196
-0.985513
-0.968807
-0.916933
-0.844854
-0.763344
-0.679779
-0.598899
-0.523483
-0.454912
-0.393527
-0.339109
-0.290699
-0.247322
-0.205684
-0.166162
-0.108028
-0.0785314
68.4717
71.1436
110.456
183.986
205.659
-149.465
-54.7801
-28.805
-16.3212
-9.56035
-5.55643
-3.031
-1.40709
-0.371125
0.281853
0.693455
0.929997
0.971151
0.857021
0.795935
0.720187
0.638812
0.561894
0.490697
0.422693
0.373185
0.277427
0.482526
62.9803
63.4282
90.5694
159.173
168.5
25.521
-136.42
-52.7614
-27.767
-15.6765
-9.11574
-5.25743
-2.8443
-1.29888
-0.313376
0.307803
0.696139
0.902636
0.948159
0.84672
0.783922
0.709438
0.629426
0.553508
0.483104
0.416525
0.364424
0.285671
0.439312
54.5632
53.1525
64.6769
109.48
91.3559
20.2186
-93.6414
-90.5592
-46.6977
-25.1043
-14.1532
-8.13691
-4.62323
-2.45681
-1.08215
-0.207176
0.34521
0.687834
0.850717
0.901034
0.816906
0.755822
0.683973
0.607501
0.534533
0.466527
0.402149
0.350073
0.276001
0.409591
44.5842
42.8176
43.5593
49.2441
55.2665
0.751342
-56.5348
-57.7832
-36.4752
-20.9901
-12.0471
-6.90338
-3.86678
-2.00782
-0.83916
-0.0981419
0.370144
0.660781
0.770344
0.832147
0.770213
0.713759
0.645907
0.574711
0.506262
0.441952
0.380702
0.329732
0.258673
0.372273
34.696
33.3113
31.8801
30.3602
15.7946
-1.77896
-25.4834
-29.7827
-21.8302
-13.9519
-8.44519
-4.92298
-2.72726
-1.35609
-0.492041
0.0547866
0.399224
0.603292
0.674476
0.74832
0.706867
0.657954
0.595911
0.53158
0.469146
0.409857
0.352799
0.303905
0.236327
0.327121
25.9263
24.7998
22.9791
19.1879
9.43028
-4.61265
-14.1679
-15.2471
-11.5514
-7.66539
-4.76831
-2.7763
-1.45608
-0.599484
-0.0513255
0.293308
0.502602
0.613564
0.680563
0.665737
0.63395
0.588781
0.535039
0.479156
0.424071
0.371052
0.319277
0.27347
0.210261
0.277111
18.8572
17.8627
15.9839
11.9374
5.12462
-3.20841
-8.94891
-9.91157
-7.91891
-5.57273
-3.63817
-2.1901
-1.17399
-0.490122
-0.0413518
0.245678
0.421884
0.517846
0.554894
0.566301
0.544174
0.508237
0.464994
0.418762
0.372189
0.326561
0.281134
0.239485
0.181804
0.225067
13.6038
12.6873
10.8894
7.21732
2.32292
-2.83667
-6.06944
-6.69706
-5.60009
-4.14388
-2.82269
-1.76658
-0.988077
-0.443581
-0.0754347
0.1665
0.318809
0.406391
0.447894
0.458746
0.445343
0.420008
0.387689
0.351814
0.314668
0.277394
0.239339
0.202989
0.152225
0.173675
9.99281
9.08522
7.34262
4.16969
0.623574
-2.63512
-4.50788
-4.84812
-4.15517
-3.18373
-2.25366
-1.47658
-0.880324
-0.446687
-0.143216
0.0630224
0.197788
0.27998
0.324354
0.341185
0.338749
0.324994
0.304202
0.279361
0.252406
0.224338
0.194649
0.164814
0.122569
0.125327
7.75102
6.78858
5.03352
2.33711
-0.268022
-2.37614
-3.50188
-3.67409
-3.20898
-2.53973
-1.87445
-1.2981
-0.839059
-0.492133
-0.239404
-0.0606924
0.0618798
0.142077
0.190884
0.216587
0.225731
0.224086
0.215346
0.202074
0.185932
0.167826
0.147471
0.125429
0.0935253
0.0819249
6.57593
5.52137
3.73504
1.47389
-0.484108
-1.93053
-2.68102
-2.80983
-2.52439
-2.07967
-1.61408
-1.19328
-0.843476
-0.566928
-0.356005
-0.199309
-0.0853439
-0.00473287
0.0502549
0.0858208
0.1069
0.117781
0.121486
0.12019
0.115359
0.10787
0.0977726
0.0848251
0.0652957
0.0447415
6.16243
5.02453
3.27828
1.42175
-0.106872
-1.2208
-1.84829
-2.0467
-1.94711
-1.70365
-1.41243
-1.1269
-0.872725
-0.658855
-0.485449
-0.34805
-0.240882
-0.158635
-0.0965806
-0.0506404
-0.0173716
0.00628406
0.0226719
0.0336184
0.0404493
0.0440846
0.0450572
0.0424426
0.037461
0.0142989
6.20855
5.06959
3.51716
2.02424
0.750569
-0.251841
-0.921489
-1.27577
-1.3863
-1.34647
-1.22624
-1.07152
-0.910157
-0.757662
-0.621125
-0.502681
-0.402052
-0.317968
-0.248686
-0.192274
-0.146806
-0.110349
-0.0812361
-0.057971
-0.039334
-0.024311
-0.0116924
-0.00294716
0.00870669
-0.00986276
6.39473
5.43929
4.23819
3.04269
1.90265
0.891684
0.0953538
-0.460812
-0.799295
-0.97147
-1.02736
-1.0075
-0.942628
-0.854346
-0.756869
-0.659029
-0.56607
-0.48092
-0.404952
-0.338485
-0.281178
-0.23222
-0.190626
-0.155267
-0.124996
-0.0987293
-0.0743725
-0.0536837
-0.024098
-0.0301667
6.40196
5.8606
5.05376
4.09559
3.05443
2.02453
1.1052
0.3592
-0.194215
-0.57057
-0.800196
-0.91663
-0.951356
-0.930904
-0.875935
-0.801668
-0.718817
-0.634615
-0.553675
-0.478677
-0.410921
-0.350753
-0.297865
-0.251585
-0.210803
-0.174466
-0.139659
-0.1075
-0.0613698
-0.0495942
6.32688
6.09451
5.57486
4.80735
3.87951
2.88397
1.91764
1.06262
0.366146
-0.160345
-0.528759
-0.762726
-0.890222
-0.938642
-0.931819
-0.888939
-0.824627
-0.749547
-0.671106
-0.594153
-0.521616
-0.455039
-0.394917
-0.341161
-0.292928
-0.249324
-0.207163
-0.166859
-0.108132
-0.0776605
52.5581
51.4048
59.7339
85.8839
69.6656
11.061
-64.6938
-61.7663
-35.0972
-19.9091
-11.4174
-6.54386
-3.65289
-1.87428
-0.754978
-0.0465387
0.400744
0.667334
0.795844
0.875901
0.804054
0.747614
0.675433
0.600359
0.528608
0.461544
0.396971
0.347828
0.256839
0.426646
48.5428
47.4399
52.2118
74.5283
59.6832
10.0751
-56.676
-54.9454
-32.8291
-18.95
-10.9368
-6.26802
-3.4852
-1.77406
-0.698641
-0.018312
0.41084
0.665891
0.780858
0.858394
0.7904
0.733869
0.663385
0.589798
0.519323
0.45329
0.39026
0.339121
0.263299
0.388405
42.2139
40.8777
41.9351
43.7874
46.8427
-0.100113
-40.3064
-42.6306
-27.9606
-16.8118
-9.86743
-5.67673
-3.14173
-1.57866
-0.597648
0.0223127
0.412886
0.643048
0.736979
0.814335
0.757279
0.703287
0.636221
0.566367
0.49911
0.435762
0.375196
0.324589
0.253474
0.361325
34.6949
33.3079
31.8731
30.3507
15.787
-1.82988
-25.5862
-29.8552
-21.8692
-13.9682
-8.45124
-4.92468
-2.72751
-1.35612
-0.492347
0.0542353
0.398874
0.60292
0.674247
0.748418
0.706991
0.658088
0.596047
0.531712
0.469271
0.409972
0.352899
0.303988
0.236386
0.327173
27.2702
26.105
24.2066
20.5982
10.1854
-2.37533
-15.3605
-19.2177
-15.6069
-10.7512
-6.81867
-4.08129
-2.29089
-1.14419
-0.412711
0.0532639
0.347755
0.524078
0.577372
0.667497
0.640689
0.599228
0.544026
0.486787
0.430624
0.37668
0.324184
0.277982
0.2145
0.285881
20.6849
19.729
17.9064
13.9895
6.40956
-3.8108
-9.98788
-11.0229
-8.84248
-6.15605
-3.95335
-2.34991
-1.24895
-0.518265
-0.0435796
0.258111
0.442799
0.543546
0.604188
0.589861
0.565832
0.527961
0.481653
0.432965
0.384327
0.33692
0.290056
0.247559
0.189114
0.24018
15.3313
14.5256
12.8733
9.1939
3.63081
-2.74378
-6.83112
-7.66621
-6.39017
-4.66225
-3.12907
-1.93383
-1.06934
-0.473328
-0.0752205
0.183723
0.34549
0.436399
0.475145
0.489749
0.474992
0.446668
0.410914
0.371825
0.331755
0.291893
0.251642
0.213852
0.161548
0.192679
11.3151
10.597
9.09549
5.85556
1.73405
-2.38935
-4.91478
-5.46854
-4.71135
-3.58502
-2.50681
-1.61674
-0.943472
-0.461007
-0.128565
0.0941823
0.237686
0.323238
0.367121
0.382755
0.376737
0.358922
0.333918
0.305001
0.27426
0.242767
0.210027
0.177962
0.133056
0.145869
8.54805
7.84376
6.40365
3.62419
0.562377
-2.16296
-3.74229
-4.08515
-3.59566
-2.8282
-2.0571
-1.39339
-0.871154
-0.482764
-0.205116
-0.0124407
0.116821
0.19879
0.246272
0.268353
0.272704
0.26595
0.252027
0.233745
0.212906
0.190463
0.166068
0.140773
0.104672
0.101977
6.84881
6.09437
4.63012
2.26299
-0.0384924
-1.88617
-2.91084
-3.13377
-2.81546
-2.28967
-1.73845
-1.24555
-0.842653
-0.531157
-0.299076
-0.13126
-0.0130129
0.0672501
0.118961
0.149354
0.164322
0.168827
0.166216
0.158871
0.148351
0.135524
0.120257
0.102805
0.0770853
0.0627828
5.99597
5.15235
3.63702
1.63769
-0.127176
-1.45157
-2.18703
-2.38447
-2.21376
-1.8785
-1.50151
-1.14691
-0.843232
-0.596917
-0.404531
-0.258191
-0.148922
-0.0691243
-0.0123523
0.0266729
0.0522646
0.0681209
0.0769387
0.0807094
0.0807997
0.0780505
0.0726369
0.0641035
0.0505112
0.0294825
5.75073
4.82089
3.3148
1.65675
0.256051
-0.79591
-1.43422
-1.69509
-1.6834
-1.52453
-1.30395
-1.07297
-0.858508
-0.672056
-0.516606
-0.390199
-0.289014
-0.20918
-0.147048
-0.0993326
-0.0631701
-0.0359841
-0.0157363
-0.000790145
0.0100731
0.0177217
0.022779
0.0241742
0.0245678
0.00257102
5.86557
4.91839
3.5604
2.21285
1.03362
0.0776729
-0.595422
-0.989827
-1.15967
-1.18084
-1.11471
-1.00423
-0.87708
-0.749785
-0.631057
-0.52466
-0.43169
-0.351975
-0.284633
-0.228403
-0.181873
-0.143526
-0.111984
-0.0859518
-0.0643309
-0.0461824
-0.0302551
-0.0181178
-0.00197907
-0.0183856
6.06979
5.26621
4.20345
3.11467
2.05567
1.09716
0.319645
-0.246269
-0.613149
-0.82133
-0.913609
-0.926731
-0.889754
-0.823894
-0.743744
-0.658839
-0.575176
-0.496384
-0.424452
-0.36022
-0.303779
-0.254673
-0.212193
-0.175412
-0.143322
-0.114941
-0.0881966
-0.0649119
-0.0320431
-0.035667
6.09438
5.63763
4.91605
4.03686
3.06856
2.09927
1.22083
0.494298
-0.0577768
-0.444907
-0.691951
-0.828431
-0.883102
-0.880871
-0.841621
-0.780334
-0.70781
-0.631526
-0.556412
-0.485486
-0.420366
-0.361688
-0.309392
-0.263001
-0.221558
-0.184126
-0.147886
-0.114022
-0.0659464
-0.052085
6.03803
5.83907
5.36748
4.65663
3.79007
2.85467
1.93969
1.12191
0.447367
-0.0703159
-0.439634
-0.68089
-0.819216
-0.879826
-0.885084
-0.853296
-0.798633
-0.731591
-0.659592
-0.587606
-0.518736
-0.454717
-0.396232
-0.343352
-0.295377
-0.251523
-0.208733
-0.1675
-0.108086
-0.0764938
38.2672
37.3592
37.1631
35.01
20.5615
-2.37649
-28.4113
-27.1125
-18.3094
-11.0668
-6.56099
-3.7393
-1.95655
-0.831713
-0.123402
0.31707
0.583626
0.723114
0.800924
0.786077
0.739837
0.684063
0.619007
0.551964
0.48689
0.425347
0.36536
0.317572
0.232406
0.3648
35.5417
34.5425
33.6448
29.8174
17.0577
-1.77808
-25.1002
-24.2673
-16.7779
-10.3326
-6.1592
-3.51104
-1.82769
-0.762542
-0.0912628
0.326289
0.578295
0.710343
0.787185
0.768863
0.723664
0.669128
0.605787
0.540379
0.476807
0.416497
0.358158
0.308987
0.236979
0.33198
31.1723
30.0419
28.7595
25.5635
12.5379
-5.80771
-19.2097
-20.1365
-14.3836
-9.11254
-5.52111
-3.16737
-1.64678
-0.676452
-0.0621565
0.320989
0.552212
0.673098
0.744383
0.727389
0.687566
0.636688
0.577231
0.515676
0.45553
0.398145
0.342509
0.294377
0.22708
0.307842
25.9225
24.7938
22.9693
19.1734
9.41188
-4.66777
-14.2259
-15.2889
-11.5711
-7.67337
-4.77117
-2.7769
-1.45575
-0.598941
-0.0508305
0.293699
0.502902
0.61377
0.680721
0.666037
0.634293
0.58913
0.53538
0.479481
0.424373
0.371325
0.319515
0.273665
0.210398
0.27723
20.6827
19.726
17.9021
13.9832
6.40091
-3.83067
-10.008
-11.0387
-8.85123
-6.16045
-3.95549
-2.35077
-1.24918
-0.518236
-0.043472
0.258216
0.442867
0.543587
0.604203
0.590043
0.566036
0.528163
0.481849
0.43315
0.384498
0.337073
0.290189
0.247668
0.189191
0.240246
15.9843
15.2189
13.6151
9.93418
4.0445
-2.97093
-7.10544
-7.92384
-6.58168
-4.75419
-3.15073
-1.92121
-1.04275
-0.442374
-0.0444038
0.212313
0.370987
0.458459
0.501159
0.501788
0.485404
0.455809
0.418591
0.378372
0.337343
0.296643
0.255695
0.217476
0.164737
0.19935
12.1239
11.5081
10.1416
6.88687
2.41453
-2.30501
-5.17164
-5.8272
-5.01488
-3.78384
-2.61864
-1.67016
-0.960468
-0.45646
-0.112314
0.116182
0.261946
0.347142
0.390007
0.402113
0.39465
0.374962
0.347874
0.317026
0.284511
0.251424
0.217298
0.184301
0.13834
0.156916
9.20795
8.6788
7.47365
4.67775
1.28258
-1.94621
-3.88944
-4.37389
-3.8733
-3.03519
-2.18907
-1.46509
-0.900141
-0.483792
-0.189589
0.0123247
0.146177
0.229493
0.27641
0.29639
0.298236
0.288741
0.27198
0.250955
0.227544
0.202741
0.1762
0.149304
0.11123
0.115219
7.20354
6.69091
5.53917
3.15575
0.567155
-1.67824
-2.99916
-3.34976
-3.03605
-2.46086
-1.84895
-1.30294
-0.859808
-0.521246
-0.272576
-0.0954669
0.0271385
0.108357
0.158892
0.186508
0.198045
0.198888
0.192557
0.181605
0.167672
0.151654
0.133359
0.113424
0.0844226
0.0762995
5.99839
5.44146
4.25585
2.22052
0.225743
-1.3756
-2.30549
-2.57969
-2.39935
-2.01645
-1.5842
-1.18085
-0.840124
-0.568871
-0.36103
-0.206516
-0.0941275
-0.0146646
0.0395786
0.074655
0.0956438
0.106695
0.110745
0.109934
0.105686
0.0988245
0.089359
0.0772356
0.0586034
0.0417987
5.43701
4.79656
3.54665
1.81407
0.25011
-0.950978
-1.668
-1.93209
-1.8737
-1.65065
-1.36802
-1.08588
-0.834115
-0.622778
-0.452569
-0.319171
-0.21636
-0.138488
-0.0805511
-0.0383256
-0.00822295
0.012812
0.0270899
0.0363705
0.0418936
0.0444452
0.0443242
0.0408459
0.0340041
0.0128271
5.33912
4.61254
3.34732
1.89491
0.63098
-0.352698
-0.995683
-1.31575
-1.39099
-1.31949
-1.17446
-1.00343
-0.833747
-0.679029
-0.544964
-0.432125
-0.338779
-0.262635
-0.201235
-0.152203
-0.113337
-0.0826022
-0.0583216
-0.0390911
-0.023827
-0.0117332
-0.00209863
0.00383411
0.0102848
-0.0101519
5.50806
4.75059
3.5915
2.39728
1.3212
0.41936
-0.250439
-0.68082
-0.908559
-0.992243
-0.983586
-0.921413
-0.832523
-0.734075
-0.636214
-0.544295
-0.460845
-0.386866
-0.32242
-0.266997
-0.219766
-0.179682
-0.145704
-0.116774
-0.0919425
-0.0703686
-0.0507651
-0.034833
-0.013697
-0.0275413
5.72132
5.06938
4.15009
3.17538
2.20544
1.30708
0.555231
-0.0155366
-0.408276
-0.652319
-0.782568
-0.831211
-0.825018
-0.784427
-0.724178
-0.654397
-0.581815
-0.510781
-0.44394
-0.382703
-0.327639
-0.278695
-0.235472
-0.197284
-0.163284
-0.132617
-0.103244
-0.0770894
-0.040617
-0.0414617
5.75972
5.38785
4.75541
3.96121
3.07275
2.17122
1.34029
0.63854
0.0913354
-0.304941
-0.569365
-0.726957
-0.803285
-0.821264
-0.799737
-0.75329
-0.692719
-0.625714
-0.557521
-0.49151
-0.429648
-0.372891
-0.321454
-0.275085
-0.233004
-0.194414
-0.156613
-0.120877
-0.0707158
-0.054551
5.72124
5.55606
5.13522
4.4858
3.68651
2.81763
1.96018
1.18493
0.536304
0.0299141
-0.339225
-0.587792
-0.737739
-0.811787
-0.83058
-0.81136
-0.767728
-0.709945
-0.645418
-0.579233
-0.514676
-0.453692
-0.39717
-0.345364
-0.297737
-0.25363
-0.210153
-0.167889
-0.107793
-0.0749684
26.8913
25.7404
23.9157
20.0753
11.4624
-5.27724
-14.1702
-16.3835
-11.6979
-7.65663
-4.81595
-2.81978
-1.48091
-0.607742
-0.0461963
0.307343
0.521996
0.637606
0.680795
0.690669
0.655123
0.6073
0.552203
0.494507
0.437515
0.382808
0.328612
0.283336
0.205346
0.30039
25.1361
23.977
21.9676
17.6975
9.52664
-5.05299
-12.8202
-14.8135
-10.8797
-7.19803
-4.53974
-2.6615
-1.39279
-0.56206
-0.0271643
0.309525
0.513307
0.622087
0.661682
0.670795
0.637656
0.59137
0.538048
0.482139
0.426803
0.373488
0.321014
0.274961
0.208016
0.273188
22.312
21.2041
19.2673
14.9339
7.10674
-3.78583
-11.2324
-12.4524
-9.50548
-6.46347
-4.13028
-2.44277
-1.28587
-0.520595
-0.0247279
0.288898
0.47935
0.58131
0.618769
0.628404
0.599847
0.557737
0.508511
0.456539
0.404761
0.354543
0.304962
0.260426
0.198146
0.252145
18.8506
17.8543
15.9725
11.9215
5.10428
-3.25199
-8.99024
-9.94347
-7.93533
-5.57992
-3.64067
-2.19019
-1.1731
-0.488927
-0.0402015
0.24666
0.422699
0.518521
0.555491
0.566954
0.544838
0.50888
0.465605
0.419333
0.372714
0.327033
0.281542
0.239819
0.18204
0.225266
15.3266
14.5201
12.8661
9.18447
3.61887
-2.76497
-6.85119
-7.68205
-6.39907
-4.6665
-3.1307
-1.93399
-1.06883
-0.47259
-0.0744662
0.184401
0.346075
0.436904
0.475627
0.490241
0.475483
0.447139
0.411359
0.372239
0.332135
0.292234
0.251936
0.214093
0.161718
0.192822
12.1214
11.5054
10.1385
6.88288
2.40969
-2.31242
-5.17871
-5.83289
-5.01829
-3.78552
-2.61928
-1.67019
-0.960205
-0.456086
-0.111924
0.116548
0.262277
0.347444
0.390287
0.402389
0.394916
0.375215
0.348112
0.317247
0.284713
0.251604
0.217454
0.184429
0.13843
0.156991
9.46246
8.99472
7.87511
5.08079
1.56465
-1.86104
-3.94255
-4.48377
-3.9793
-3.11339
-2.23894
-1.49278
-0.91231
-0.485788
-0.185579
0.019652
0.155166
0.23895
0.285743
0.30483
0.306251
0.296014
0.278372
0.256487
0.232258
0.206704
0.179486
0.152105
0.113448
0.119899
7.4466
7.06681
6.1011
3.73076
0.980228
-1.51304
-3.02583
-3.46569
-3.16306
-2.56311
-1.91809
-1.34252
-0.876716
-0.522548
-0.264221
-0.0815454
0.0439514
0.126171
0.17653
0.203095
0.213318
0.212584
0.20458
0.191984
0.176484
0.159001
0.139335
0.118334
0.0879661
0.0835923
6.07252
5.71576
4.79905
2.78332
0.6259
-1.20794
-2.31882
-2.68116
-2.51619
-2.11257
-1.64853
-1.21492
-0.849895
-0.561761
-0.343177
-0.182515
-0.0672097
0.0129242
0.0663848
0.0996988
0.118461
0.127068
0.128614
0.125355
0.118768
0.109683
0.0980551
0.0841031
0.0629785
0.0499123
5.27508
4.88399
3.93425
2.20716
0.500582
-0.878139
-1.72391
-2.04436
-1.98678
-1.73733
-1.42065
-1.10689
-0.830374
-0.601911
-0.420778
-0.281536
-0.176498
-0.0988774
-0.0427853
-0.00339972
0.023385
0.0409366
0.0517508
0.05769
0.0600273
0.0595204
0.0563179
0.0500414
0.039162
0.0203489
4.9491
4.4844
3.4692
1.98803
0.618622
-0.463121
-1.15805
-1.48029
-1.52416
-1.40824
-1.21922
-1.0112
-0.814149
-0.640855
-0.495625
-0.377465
-0.282898
-0.20828
-0.150123
-0.105315
-0.0710979
-0.045081
-0.0253752
-0.0104895
0.000664435
0.00879984
0.0143302
0.0163203
0.0167654
-0.00408085
4.96258
4.41617
3.37191
2.1173
0.989836
0.0778684
-0.561967
-0.932301
-1.08678
-1.09897
-1.02912
-0.919659
-0.797287
-0.677102
-0.567019
-0.469955
-0.386233
-0.315157
-0.25552
-0.2059
-0.164825
-0.130838
-0.102659
-0.0791477
-0.0593819
-0.0426567
-0.0281846
-0.0174034
-0.00450365
-0.0229473
5.16323
4.57706
3.60549
2.5619
1.5912
0.748691
0.0899626
-0.368457
-0.647768
-0.790606
-0.838625
-0.825685
-0.776874
-0.709445
-0.634591
-0.559064
-0.48675
-0.419809
-0.359274
-0.305414
-0.258026
-0.216565
-0.180358
-0.148613
-0.12055
-0.0954498
-0.0720012
-0.0520588
-0.0256884
-0.0366199
5.37319
4.85989
4.07829