/*--------------------------------*- C++ -*----------------------------------*\
  =========                 |
  \\      /  F ield         | OpenFOAM: The Open Source CFD Toolbox
   \\    /   O peration     | Website:  https://openfoam.org
    \\  /    A nd           | Version:  7
     \\/     M anipulation  |
\*---------------------------------------------------------------------------*/
FoamFile
{
    version     2.0;
    format      ascii;
    class       surfaceScalarField;
    location    "300";
    object      phi;
}
// * * * * * * * * * * * * * * * * * * * * * * * * * * * * * * * * * * * * * //

dimensions      [0 3 -1 0 0 0 0];

internalField   nonuniform List<scalar> 
81175
(
525.053
8.761
8.72161
113.179
32.2469
32.1284
115.167
115.323
117.008
93.5155
9.84393
9.81959
-14.6343
3.0379
3.45968
1.99899
2.18301
1.71135
2.24333
2.2902
-0.642785
-0.75619
-0.891232
-5.84563
-1.11
-1.1752
8.13083
-14.0599
15.7005
-0.811074
-0.829479
-19.7352
20.8261
-0.542711
-0.548243
-23.5046
24.2335
-0.363431
-0.365443
-26.0447
26.5452
-0.249805
-0.25073
-27.809
28.1641
-0.177296
-0.177833
-29.0738
29.3329
-0.129347
-0.12972
-30.0024
30.1942
-0.0957627
-0.0960472
-30.6913
123.885
-0.544023
-0.545734
-30.6987
-30.6987
-30.7063
506.097
-3.08412
-3.09485
-124.863
-124.98
-124.98
-125.095
511.105
-2.49946
-2.50886
515.197
-2.04137
-2.04975
518.58
-1.68793
-1.69548
521.41
-1.4115
-1.41837
523.801
-1.19217
-1.19847
525.838
-1.01555
-1.02135
527.586
-0.871366
-0.876711
529.084
-0.746755
-0.751694
530.391
-0.651076
-0.655651
-0.512637
-0.516933
529.708
14.4444
7.59984
118.566
50.6935
27.1095
122.253
120.05
123.283
-17.9317
104.562
23.6201
8.31546
-11.0158
-19.6576
13.0943
2.57157
3.89402
3.58299
3.63149
3.899
-2.38901
3.79886
-5.50563
-1.02785
5.12358
-12.0742
4.20153
-1.02951
-4.9548
13.857
2.85471
-18.102
19.2422
-3.30405
-0.69082
1.92091
-22.0765
22.8623
-2.24192
-0.464779
1.3153
-24.8507
25.4098
-1.55481
-0.319561
0.923393
-26.8394
27.2455
-1.10411
-0.225417
0.666164
-28.2941
28.5949
-0.803709
-0.163295
0.491966
-29.3784
29.6051
-0.597594
-0.121005
0.368075
-30.1986
30.3711
-0.449724
-0.0908052
-30.8326
1.06473
124.443
-1.54291
-0.51992
-30.8825
-30.8401
-30.8899
508.033
-5.74577
-2.93764
-125.378
-125.731
-125.489
-125.835
512.614
-4.68587
-2.39469
516.396
-3.8566
-1.96618
519.549
-3.20749
-1.6332
522.205
-2.69566
-1.37115
524.461
-2.28684
-1.16211
526.394
-1.95558
-0.993028
528.06
-1.68269
-0.854398
529.497
-1.44946
-0.734428
530.741
-1.25236
-0.642834
-1.03273
-0.504199
535.601
16.5558
6.02793
126.055
54.5359
20.0241
129.14
126.847
129.693
-26.3327
119.547
26.9694
5.87079
-14.8849
-27.0653
25.3583
14.7922
1.79965
-0.184366
0.878785
-0.750802
0.0579015
-19.5493
8.91784
-8.71383
-1.01988
20.3652
5.7131
-22.1281
-0.649514
22.6471
-5.58269
3.8801
-24.0985
24.546
-3.87517
-0.452442
2.75936
-25.7824
26.1594
-2.81012
-0.32619
2.00735
-27.19
27.5016
-2.07957
-0.239375
1.48512
-28.3477
28.6019
-1.56102
-0.178333
1.11691
-29.2894
29.4952
-1.18789
-0.134883
0.851806
-30.0506
30.2167
-0.914487
-0.103343
0.654598
-30.6639
30.7974
-0.708452
-0.0796712
-31.1703
1.94705
125.65
-2.2864
-0.465666
-31.2458
-31.1768
-31.252
511.571
-7.6865
-2.65555
-126.449
-126.946
-126.545
-127.034
515.419
-6.34603
-2.1874
518.657
-5.28148
-1.81297
521.401
-4.43342
-1.51785
523.743
-3.75487
-1.2828
525.757
-3.20662
-1.0935
527.498
-2.75808
-0.939151
529.013
-2.38516
-0.81173
530.33
-2.06552
-0.700992
531.482
-1.7886
-0.616096
-1.498
-0.485703
540.839
16.2556
4.5868
530.972
50.1758
14.2272
129.68
97.4306
28.5567
-26.4736
-35.9809
-25.6012
-34.5304
133.614
130.443
133.834
-53.7892
131.701
44.4025
7.36612
-23.4119
-34.0412
36.1843
19.4479
1.82099
4.65791
-4.72333
0.0655446
12.0829
-29.0619
28.4817
-10.5213
-0.981419
7.01319
-27.8308
-0.530752
27.7582
-6.40991
4.8095
-27.7951
27.8663
-4.51431
-0.36644
3.5697
-28.1793
28.3058
-3.4202
-0.276013
2.73831
-28.7158
28.8585
-2.66704
-0.213935
2.1281
-29.2928
29.436
-2.10376
-0.167573
1.66607
-29.8563
29.9909
-1.66863
-0.132055
1.31296
-30.3773
30.4986
-1.3297
-0.104659
1.04015
-30.8419
30.9484
-1.06331
-0.0833107
0.825643
-31.2463
31.338
-0.851008
-0.0663208
-31.6097
2.53683
127.206
-2.72721
-0.398554
-31.6935
-31.6151
-31.6987
516.069
-8.85367
-2.31
-127.835
-128.386
-127.914
-128.457
519.067
-7.41615
-1.92766
521.656
-6.25326
-1.61713
523.899
-5.30799
-1.36798
525.848
-4.53818
-1.16635
527.551
-3.90728
-1.00194
529.044
-3.38507
-0.866471
530.359
-2.94645
-0.753677
531.517
-2.56814
-0.655022
532.544
-2.23604
-0.578982
-1.89257
-0.461001
544.531
14.5786
3.3703
541.906
42.9392
9.86219
136.193
75.221
17.629
136.955
136.318
137.02
-36.3551
138.396
30.3632
3.78803
-49.1269
149.499
37.6537
4.85928
-142.885
-10.8936
-39.625
40.9089
0.582622
9.02708
-0.378576
-43.0167
42.426
-0.0816291
1.05093
6.9144
-37.9063
141.259
-16.0788
-2.4172
7.20802
6.77429
7.10852
-37.9729
-37.4479
-37.4411
6.37876
-134.033
129.481
-17.6747
-2.40715
6.30086
6.01276
5.9409
4.71826
-126.67
125.091
-14.7842
-1.89243
4.4493
4.67603
4.41205
3.63014
-124.155
123.682
-12.1609
-1.50656
3.46391
3.60484
3.44133
2.91223
-123.474
123.462
-10.136
-1.23128
2.79349
2.89515
2.77796
2.37623
-123.595
123.827
-8.51289
-1.01961
2.28591
2.36378
2.27443
1.95101
-124.143
124.509
-7.15867
-0.847925
1.87813
1.94183
1.86958
1.60348
-124.924
125.356
-6.00941
-0.705242
1.54427
1.59666
1.53786
1.31791
-125.813
126.266
-5.03247
-0.585981
1.26963
1.3128
1.2648
1.08226
-126.728
127.173
-4.20085
-0.485879
1.04241
1.07846
1.03883
0.885964
-127.616
128.036
-3.49154
-0.401382
0.85327
0.88327
0.850759
2.83677
-128.454
128.849
-2.90077
-0.331152
520.937
-9.343
-1.9522
-129.32
-129.867
-129.383
-129.926
523.12
-7.94599
-1.65222
525.06
-6.78903
-1.4049
526.787
-5.83204
-1.20249
528.322
-5.03774
-1.03568
529.689
-4.3766
-0.89772
530.91
-3.82246
-0.78272
532.001
-3.35214
-0.686083
532.978
-2.94355
-0.600964
533.858
-2.58153
-0.535066
-2.20601
-0.431457
546.761
12.2676
2.40277
547.613
35.2655
6.8223
553.614
57.9464
11.2729
568.579
76.1895
15.0185
-25.5205
-28.2841
-24.8449
-27.5236
148.056
78.4528
15.6131
-29.7846
-27.8461
-28.8951
-27.0549
146.179
147.831
146.029
-22.4681
150.389
18.3341
1.80064
-4.9991
-150.839
149.204
6.13348
0.500197
556.482
-11.3543
-3.74014
8.96432
11.0943
8.37322
10.5168
-145.873
-144.467
-145.671
-144.324
538.436
-24.2653
-5.81537
12.47
12.0446
11.9671
11.6448
527.748
-28.1341
-5.99788
11.7359
10.9755
11.3997
10.7087
521.919
-27.9404
-5.59713
10.2819
9.61337
10.0488
9.4221
518.99
-26.1638
-5.04444
8.89265
8.33487
8.72032
8.18887
517.815
-23.8359
-4.47868
7.67015
7.1972
7.53902
7.08326
517.775
-21.3783
-3.94059
6.58939
6.18516
6.48781
6.09629
518.464
-18.9553
-3.44205
5.63854
5.28958
5.55994
5.22051
519.613
-16.6564
-2.98718
4.80273
4.5015
4.7421
4.44813
521.032
-14.5173
-2.5764
4.07033
3.81029
4.02395
3.76962
522.593
-12.5619
-2.20984
3.42988
3.20791
3.39522
3.17803
524.212
-10.8136
-1.88776
2.87987
2.68969
2.85335
2.65898
525.778
-9.29375
-1.6142
527.244
-8.02537
-1.38686
528.602
-6.95093
-1.19626
529.85
-6.04305
-1.03658
530.989
-5.27493
-0.902469
532.028
-4.6256
-0.789903
532.975
-4.07455
-0.69495
533.84
-3.60221
-0.614457
534.629
-3.18914
-0.543111
535.356
-2.82067
-0.487726
-2.43398
-0.399262
547.908
9.85576
1.6747
550.326
28.1628
4.68412
555.895
44.9505
7.42656
565.559
57.0897
9.43655
576.151
58.2705
9.58966
579.51
43.9917
6.80473
-15.4489
-11.8362
-15.1796
-11.6904
573.033
21.9996
2.94086
-6.43508
-2.74514
-6.42603
-2.85752
560.47
1.77667
-0.567888
548.986
-10.4027
-2.37872
540.474
-16.5017
-3.12033
534.774
-18.934
-3.30619
531.162
-19.3311
-3.22104
529.021
-18.6787
-3.01693
527.897
-17.4908
-2.76297
527.484
-16.0486
-2.49388
527.569
-14.515
-2.22619
527.998
-12.9774
-1.96914
528.66
-11.4954
-1.72852
529.464
-10.1093
-1.50859
530.344
-8.85859
-1.31452
531.231
-7.76471
-1.14754
532.098
-6.81404
-1.00368
532.928
-5.99303
-0.880481
533.714
-5.28532
-0.775101
534.451
-4.6781
-0.685341
535.142
-4.15672
-0.608759
535.79
-3.706
-0.543344
536.395
-3.30993
-0.485113
536.97
-2.95539
-0.439893
-2.57666
-0.366464
548.347
7.6353
1.15171
551.235
22.0603
3.21462
556.19
34.9891
5.00596
563.113
43.9556
6.2115
569.857
45.2167
6.30971
572.378
36.6023
4.86801
569.22
22.4392
2.71856
562.184
8.18473
0.628227
554.637
-2.12239
-0.733098
548.208
-8.56434
-1.50872
543.285
-12.1277
-1.88374
539.74
-13.7714
-2.01425
537.284
-14.2177
-2.00545
535.651
-13.9377
-1.91987
534.642
-13.2455
-1.79353
534.095
-12.3209
-1.64717
533.893
-11.2821
-1.49345
533.946
-10.2078
-1.34055
534.183
-9.15199
-1.19414
534.543
-8.15913
-1.05984
534.973
-7.25527
-0.939611
535.44
-6.44752
-0.833188
535.921
-5.73407
-0.740004
536.402
-5.10758
-0.658792
536.875
-4.5623
-0.588605
537.335
-4.08914
-0.528088
537.783
-3.67743
-0.476087
538.218
-3.31503
-0.429757
538.648
-2.99124
-0.393879
-2.63713
-0.334738
548.395
5.7282
0.786161
551.237
17.0013
2.21754
555.516
27.2606
3.44935
560.83
34.3825
4.25914
565.725
35.9465
4.37515
567.955
30.7698
3.60189
566.668
21.3673
2.35886
562.681
11.1204
1.05208
557.764
2.73133
0.0631547
553.067
-3.26364
-0.604209
549.083
-7.13591
-1.00764
545.903
-9.37031
-1.22125
543.479
-10.4833
-1.30994
541.676
-10.8151
-1.3198
540.373
-10.6625
-1.28051
539.467
-10.2028
-1.2119
538.873
-9.56122
-1.12688
538.523
-8.82412
-1.03414
538.364
-8.05223
-0.939826
538.345
-7.29196
-0.848899
538.427
-6.57245
-0.764177
538.577
-5.91059
-0.686986
538.773
-5.31251
-0.617771
538.999
-4.77762
-0.556264
539.245
-4.3057
-0.502336
539.504
-3.89244
-0.455391
539.773
-3.53151
-0.414895
540.052
-3.21474
-0.378966
540.347
-2.93501
-0.351337
-2.61978
-0.305341
548.245
4.14648
0.536944
550.814
12.8843
1.54775
554.483
21.1569
2.43549
558.797
27.0372
3.03039
562.742
28.8297
3.17182
564.941
25.8103
2.76058
564.806
19.4876
2.01456
562.699
12.0591
1.16892
559.593
5.3842
0.453414
556.261
0.156283
-0.0884328
553.145
-3.55903
-0.460712
550.468
-5.99889
-0.694958
548.236
-7.42281
-0.827987
546.445
-8.13425
-0.889722
545.031
-8.34618
-0.903052
543.937
-8.22398
-0.884418
543.108
-7.88647
-0.845355
542.496
-7.41883
-0.794066
542.063
-6.88252
-0.736497
541.772
-6.32374
-0.677249
541.592
-5.77239
-0.619295
541.495
-5.24961
-0.5646
541.463
-4.76612
-0.514196
541.48
-4.3258
-0.468438
541.534
-3.93231
-0.42771
541.619
-3.58518
-0.391941
541.73
-3.28201
-0.361029
541.868
-3.01856
-0.333922
542.039
-2.79287
-0.313326
-2.52894
-0.279137
547.991
2.88661
0.369944
550.207
9.56589
1.10248
553.36
16.2312
1.77269
557.037
21.1196
2.24035
560.495
22.9736
2.39798
562.791
21.325
2.18916
563.438
17.1105
1.73048
562.584
11.7454
1.1674
560.754
6.56937
0.64499
558.485
2.21176
0.213116
556.152
-1.11343
-0.111971
553.948
-3.45445
-0.340336
551.995
-4.98025
-0.489577
550.313
-5.87402
-0.578536
548.895
-6.3053
-0.623526
547.719
-6.41064
-0.637233
546.756
-6.29427
-0.629287
545.979
-6.03397
-0.606922
545.359
-5.68733
-0.57559
544.873
-5.29782
-0.539541
544.496
-4.89424
-0.501667
544.21
-4.49865
-0.464168
543.996
-4.12376
-0.428392
543.841
-3.77605
-0.395065
543.735
-3.46156
-0.364889
543.671
-3.18263
-0.338153
543.644
-2.94026
-0.315039
543.655
-2.73386
-0.295222
543.711
-2.5689
-0.280416
-2.36755
-0.256647
547.704
1.90421
0.258674
549.56
6.89885
0.810159
552.302
12.1492
1.34056
555.577
16.1146
1.73002
558.792
17.8628
1.89578
561.218
17.0961
1.80231
562.453
14.3592
1.51647
562.483
10.5841
1.13166
561.61
6.69874
0.743514
560.175
3.24761
0.398773
558.483
0.459559
0.118772
556.745
-1.62223
-0.0939515
555.08
-3.06915
-0.246416
553.554
-3.99793
-0.349426
552.191
-4.52906
-0.413833
550.998
-4.76807
-0.449015
549.966
-4.80018
-0.462692
549.085
-4.69152
-0.461016
548.339
-4.49238
-0.448836
547.712
-4.24118
-0.430027
547.19
-3.96394
-0.407353
546.755
-3.68136
-0.383064
546.397
-3.40626
-0.358673
546.102
-3.14615
-0.335131
545.862
-2.90812
-0.313335
545.669
-2.6963
-0.293826
545.521
-2.51451
-0.276946
545.415
-2.36508
-0.263029
545.362
-2.26365
-0.252796
-2.1355
-0.238116
547.405
1.15488
0.182905
548.949
4.73559
0.61983
551.394
8.64031
1.06349
554.437
11.6667
1.40475
557.546
13.179
1.57481
560.137
12.9554
1.55025
561.824
11.2998
1.37197
562.512
8.79333
1.10237
562.355
6.04859
0.806988
561.595
3.48149
0.526893
560.457
1.31254
0.28433
559.13
-0.382961
0.0877256
557.746
-1.62192
-0.0634888
556.391
-2.46814
-0.174436
555.114
-2.99985
-0.251815
553.94
-3.29204
-0.302308
552.881
-3.40885
-0.331938
551.937
-3.40203
-0.345841
551.105
-3.31198
-0.348275
550.377
-3.17007
-0.342768
549.743
-2.99803
-0.331954
549.193
-2.81347
-0.318069
548.717
-2.62785
-0.302715
548.307
-2.44845
-0.286994
547.953
-2.28223
-0.271922
547.649
-2.13402
-0.258231
547.39
-2.00974
-0.246316
547.175
-1.91322
-0.237129
547.015
-1.87249
-0.230297
-1.82683
-0.223537
547.162
0.591684
0.126309
548.458
2.94095
0.498688
550.694
5.50908
0.895014
553.588
7.56441
1.2086
556.669
8.7148
1.38379
559.424
8.79563
1.40458
561.488
7.93838
1.2968
562.714
6.46386
1.10342
563.151
4.73995
0.872191
562.948
3.04563
0.637952
562.287
1.55124
0.422773
561.331
0.334382
0.238118
560.215
-0.593294
0.0876368
559.035
-1.25867
-0.0298438
557.858
-1.70516
-0.117933
556.727
-1.97914
-0.181154
555.665
-2.12291
-0.224113
554.686
-2.17205
-0.251066
553.795
-2.15513
-0.265757
552.991
-2.09475
-0.27142
552.271
-2.00694
-0.270592
551.627
-1.90485
-0.265483
551.055
-1.7973
-0.257761
550.545
-1.69031
-0.248651
550.092
-1.58956
-0.239249
549.688
-1.4995
-0.230455
549.328
-1.42702
-0.222617
549.007
-1.37515
-0.21731
548.73
-1.38248
-0.212749
-1.422
-0.212887
547.011
0.198144
0.0729662
548.127
1.39138
0.433153
550.2
2.6266
0.809575
552.974
3.67825
1.11213
556.049
4.34048
1.29939
558.976
4.51113
1.35769
561.393
4.21896
1.30154
563.104
3.59098
1.16155
564.079
2.79132
0.974185
564.396
1.95833
0.770092
564.188
1.18774
0.571336
563.598
0.532479
0.391577
562.756
0.0108352
0.237568
561.767
-0.381384
0.111129
560.711
-0.660022
0.0110192
559.643
-0.845522
-0.0655727
558.6
-0.958325
-0.122109
557.607
-1.01659
-0.162138
556.676
-1.03545
-0.188992
555.814
-1.02715
-0.205681
555.022
-1.00064
-0.214684
554.299
-0.963334
-0.218212
553.64
-0.920335
-0.217996
553.041
-0.87534
-0.215387
552.494
-0.831732
-0.211537
551.995
-0.792303
-0.207508
551.534
-0.762605
-0.20358
551.105
-0.743957
-0.201733
550.692
-0.770613
-0.198884
-0.869456
-0.205133
546.948
0.0328481
547.936
0.403261
549.781
0.781726
552.361
1.0973
555.383
1.31813
558.467
1.42746
561.257
1.42883
563.506
1.34164
565.103
1.19376
566.048
1.01273
566.414
0.821301
566.31
0.63605
565.853
0.467427
565.151
0.320745
564.293
0.197675
563.35
0.0975264
562.373
0.0182118
561.399
-0.0430138
560.453
-0.0890766
559.548
-0.122832
558.695
-0.146808
557.895
-0.163307
557.148
-0.174235
556.454
-0.181156
555.808
-0.185396
555.204
-0.188213
554.631
-0.189983
554.08
-0.192908
553.503
-0.193214
-0.202887
529.759
7.60439
14.3659
118.678
27.1255
50.4875
120.067
122.267
123.263
-17.8071
104.752
8.28408
23.4487
-11.198
-19.8979
2.6859
12.9709
3.9647
3.76301
3.75602
3.9553
-2.64861
4.31737
-1.02239
-6.04185
5.39545
-12.2161
4.3715
-1.00628
-5.10953
13.9604
2.90472
-18.1391
19.2683
-0.681065
-3.35287
1.9377
-22.0858
22.869
-0.46117
-2.25967
1.32202
-24.8533
25.4117
-0.31806
-1.56236
0.926706
-26.8401
27.2461
-0.224658
-1.10799
0.66817
-28.2943
28.5951
-0.162828
-0.806122
0.493392
-29.3785
29.6051
-0.120668
-0.599333
0.369179
-30.1987
30.3711
-0.090542
-0.451081
-30.8326
1.06811
124.443
-0.518322
-1.54788
-30.8401
-30.8825
-30.8898
508.032
-2.92772
-5.76646
-125.378
-125.489
-125.73
-125.835
512.614
-2.38592
-4.7041
516.396
-1.9583
-3.8729
519.549
-1.62604
-3.22225
522.204
-1.3646
-2.70913
524.461
-1.15609
-2.29921
526.394
-0.987463
-1.96697
528.06
-0.849252
-1.69322
529.497
-0.729663
-1.45919
530.741
-0.638413
-1.26139
-0.500043
-1.04121
533.222
12.7881
12.7606
122.432
43.7988
43.7283
125.151
125.136
127.21
-15.3003
-15.3211
112.382
20.358
20.3136
-9.46974
-9.54599
-23.2274
19.9897
11.1392
11.1143
-9.90792
4.73518
4.72143
-5.9488
-5.9735
12.3735
-17.0857
3.65015
3.5964
-4.16871
-4.21641
18.2242
2.42818
2.40189
-21.0162
21.7968
-2.79232
-2.81837
1.66384
1.65275
-23.8114
24.3912
-1.94225
-1.95411
1.1682
1.16312
-25.9057
26.3448
-1.38233
-1.38808
0.838982
0.836246
-27.4964
27.8315
-1.00354
-1.00676
0.616316
0.614564
-28.7135
28.9712
-0.743213
-0.745326
0.461603
0.460316
-29.6521
29.8519
-0.560019
-0.561592
0.349611
0.348593
-30.3812
30.5369
-0.426321
-0.427575
-30.9661
1.01716
1.01402
124.967
-1.47072
-1.47535
-31.0133
-31.0133
-31.059
509.838
-5.46525
-5.48434
-125.86
-126.193
-126.193
-126.506
514.036
-4.48023
-4.49723
517.537
-3.70454
-3.71988
520.478
-3.09304
-3.10702
522.972
-2.60805
-2.62088
525.103
-2.21887
-2.2307
526.939
-1.90228
-1.91322
528.526
-1.64053
-1.65066
529.904
-1.41652
-1.42591
531.083
-1.22567
-1.23439
-1.01537
-1.02357
537.801
14.9751
10.3716
128.094
48.192
33.5398
130.514
129.64
131.645
-22.9283
-10.9124
123.402
23.7521
14.7802
-6.32612
-13.0479
51.7678
32.8825
27.6451
29.153
28.4638
29.9206
-15.4154
-12.3089
-14.4796
-118.703
-7.27308
-5.60451
-6.67387
-4.9287
-7.25667
-6.79491
5.25823
9.44136
4.28187
0.959095
1.88554
-2.65169
3.7091
-2.63635
-1.26587
-22.6973
7.41394
3.513
-7.228
-4.06722
23.0656
2.30997
4.81945
-24.0866
-2.7006
24.4283
-4.7705
1.63546
3.3669
-25.4418
25.7685
-3.39882
-1.93026
1.19745
2.44974
-26.7034
26.9974
-2.51559
-1.42558
0.89135
1.81735
-27.8217
28.0767
-1.89415
-1.06959
0.672128
1.36679
-28.7825
28.9984
-1.44277
-0.812015
0.513364
1.04154
-29.5906
29.7704
-1.11101
-0.62367
0.39645
0.802786
-30.261
30.4092
-0.863642
-0.483823
0.307857
0.622854
-30.8124
30.934
-0.675029
-0.377289
-31.2834
0.911843
1.85865
126.098
-2.1872
-1.32582
-31.3552
-31.3234
-31.3931
513.152
-7.33485
-4.97758
-126.866
-127.338
-127.154
-127.601
516.689
-6.08274
-4.12153
519.694
-5.0828
-3.43825
522.257
-4.28136
-2.89291
524.459
-3.63678
-2.45546
526.362
-3.11386
-2.10121
528.016
-2.68454
-1.81084
529.459
-2.32647
-1.56919
530.722
-2.01909
-1.36144
531.815
-1.751
-1.18344
-1.47321
-0.986627
542.123
14.8957
8.0358
534.712
45.337
24.4935
131.877
85.6404
46.8998
134.566
133.173
135.08
-23.3564
-31.1887
-21.3963
-28.0249
-45.1176
-13.3868
38.435
17.9517
33.217
33.3667
33.8356
33.5754
-5.83168
-19.096
-34.9413
36.9162
16.3186
6.6344
0.677013
-4.45349
-16.6343
11.9538
5.63408
2.82416
2.62353
6.58971
-13.473
9.88195
-4.09478
-1.52748
9.9761
-30.4021
3.10153
29.6443
-8.75536
-3.56448
1.90221
6.06116
-28.6842
-2.24212
28.5657
-5.60278
1.3487
4.27107
-28.5008
28.5395
-4.05065
-1.60788
1.02671
3.22654
-28.7543
28.846
-3.11345
-1.23146
0.802831
2.50637
-29.1664
29.2813
-2.45638
-0.967729
0.634016
1.97043
-29.6396
29.7601
-1.95717
-0.767838
0.503305
1.55828
-30.1197
30.2365
-1.56626
-0.612133
0.401394
1.23856
-30.5757
30.6835
-1.25772
-0.489986
0.321251
0.988444
-30.9909
31.0872
-1.0125
-0.393402
0.257107
0.790185
-31.3586
31.4428
-0.81566
-0.315857
-31.6997
0.780845
2.43164
127.568
-2.62028
-1.13867
-31.7801
-31.7314
-31.8099
517.393
-8.47823
-4.34947
-128.177
-128.704
-128.412
-128.916
520.158
-7.1278
-3.64671
522.565
-6.03057
-3.07593
524.663
-5.13407
-2.61324
526.497
-4.40077
-2.23659
528.107
-3.79773
-1.92792
529.526
-3.29709
-1.67245
530.779
-2.87545
-1.45816
531.889
-2.51132
-1.27283
532.862
-2.18969
-1.11318
-1.86159
-0.935042
545.15
13.5048
5.99894
543.366
39.5221
17.4605
136.565
68.1819
30.3901
137.207
136.773
137.519
-32.2025
138.597
27.4836
9.80514
-7.11807
-42.4443
-9.02456
148.536
33.4647
12.1831
-142.715
-9.14007
-1.94743
-155.168
25.2932
9.26151
-7.79179
-8.6807
-7.33006
-1.76517
-1.77525
-1.46805
40.8015
40.4033
39.7528
39.5537
-0.94347
-0.241726
-41.4107
40.9607
0.327018
1.3082
5.54778
4.22703
-149.514
141.38
-12.7896
-5.27494
5.89395
5.09303
5.4368
5.48301
-134.97
4.4292
130.784
-15.2199
-5.83418
5.18638
5.20221
4.93947
4.22207
3.5686
-128.082
126.487
-13.2286
-4.8787
4.00045
4.05712
3.85429
3.32024
2.87284
-125.494
124.939
-11.1105
-3.99885
3.17537
3.21544
3.08028
2.69354
2.36075
-124.649
124.557
-9.36949
-3.31883
2.58823
2.61862
2.51976
2.21631
1.96287
-124.608
124.76
-7.93299
-2.77937
2.13458
2.16202
2.08418
1.83283
1.63819
-124.999
125.291
-6.71649
-2.33405
1.76615
1.79281
1.729
1.51619
1.3669
-125.635
126.001
-5.67291
-1.95843
1.46143
1.48677
1.43412
1.25343
1.13901
-126.397
126.793
-4.77708
-1.64008
1.20835
1.23184
1.1883
1.03477
0.946965
-127.204
127.601
-4.00819
-1.36975
0.997312
1.01895
0.982629
0.851678
0.78431
-128.002
128.383
-3.34871
-1.1397
0.820882
0.840168
0.810212
2.7307
-128.768
0.647564
129.134
-2.79737
-0.947193
522.02
-8.9746
-3.68929
-129.593
-130.122
-129.781
-130.29
524.035
-7.65666
-3.13774
525.84
-6.56012
-2.68021
527.455
-5.64948
-2.30252
528.9
-4.89096
-1.98974
530.192
-4.25773
-1.7299
531.35
-3.72565
-1.51248
532.391
-3.27304
-1.32854
533.326
-2.87946
-1.16847
534.16
-2.52873
-1.0299
-2.17018
-0.873291
547.035
11.4634
4.32902
548.245
32.8636
12.2709
554.15
53.5659
19.9844
567.778
69.7395
26.0099
-23.2783
-25.7024
-21.6619
-23.7162
147.281
71.6065
26.8449
-26.8598
-25.11
-24.815
-23.2143
145.641
146.678
145.338
-20.4265
-3.44169
149.392
17.0176
4.73984
-5.30171
-1.01614
-149.674
148.327
6.16094
1.50377
557.345
-8.31327
-5.05005
7.16213
9.30805
6.00032
8.01491
-145.348
-144.127
-144.848
-143.885
540.768
-20.8659
-9.26313
10.8413
10.6643
9.70131
9.68332
530.503
-25.18
-10.1526
10.5715
9.98088
9.7542
9.29348
524.645
-25.5133
-9.75643
9.44138
8.87262
8.85389
8.36251
521.53
-24.1822
-8.9556
8.25469
7.76507
7.81254
7.37544
520.133
-22.2161
-8.0589
7.1732
6.74751
6.8281
6.44383
519.844
-20.0474
-7.1661
6.20138
5.83153
5.93389
5.59484
520.287
-17.8737
-6.31552
5.33509
5.01249
5.12721
4.8288
521.202
-15.7804
-5.52409
4.56646
4.28559
4.40568
4.14375
522.408
-13.8143
-4.79893
3.88774
3.64378
3.76415
3.53506
523.777
-12.0044
-4.14388
3.2912
3.08245
3.19706
2.99992
525.232
-10.3782
-3.56027
2.77763
2.59499
2.70377
2.5193
526.654
-8.94878
-3.06205
528.003
-7.74869
-2.64284
529.262
-6.72762
-2.28823
530.427
-5.8616
-1.98917
531.497
-5.12654
-1.73686
532.477
-4.50355
-1.52422
533.375
-3.97373
-1.3443
534.197
-3.51877
-1.19084
534.952
-3.12068
-1.05656
535.639
-2.76361
-0.939948
-2.39459
-0.80598
548.004
9.27743
3.04172
550.54
26.4799
8.5319
555.996
42.1094
13.427
565.038
53.241
16.8934
574.796
54.3148
17.1232
577.866
41.4845
12.401
-14.474
-11.1773
-13.8129
-10.6874
572.145
21.5436
5.84818
-6.35579
-2.9424
-6.30452
-3.12658
560.736
2.89474
-0.367099
550.038
-8.75039
-3.79691
541.893
-14.8201
-5.33512
536.311
-17.4085
-5.82932
532.69
-17.999
-5.78299
530.478
-17.5348
-5.48717
529.255
-16.5116
-5.07553
528.729
-15.2246
-4.61731
528.696
-13.8246
-4.14947
529.01
-12.4043
-3.69262
529.562
-11.0249
-3.25986
530.263
-9.72755
-2.86027
531.05
-8.54738
-2.50332
531.857
-7.50961
-2.1929
532.654
-6.6041
-1.92421
533.424
-5.81936
-1.69281
534.158
-5.14098
-1.49399
534.85
-4.55758
-1.32403
535.502
-4.05578
-1.17866
536.115
-3.62137
-1.05377
536.693
-3.23959
-0.944142
537.235
-2.89602
-0.848893
-2.53492
-0.737321
548.367
7.22168
2.1074
551.262
20.8852
5.91355
556.103
33.0864
9.18859
562.713
41.4892
11.353
569.092
42.7009
11.5443
571.504
34.884
9.05628
568.683
21.811
5.27228
562.196
8.51065
1.4996
555.105
-1.33964
-1.05273
548.958
-7.61378
-2.56819
544.178
-11.1717
-3.34063
540.677
-12.8677
-3.64477
538.221
-13.4073
-3.67756
536.564
-13.2196
-3.55447
535.508
-12.6183
-3.34469
534.906
-11.7793
-3.09011
534.644
-10.8194
-2.81627
534.635
-9.81667
-2.53985
534.81
-8.82442
-2.27254
535.113
-7.88557
-2.02403
535.49
-7.02633
-1.79978
535.909
-6.25551
-1.60041
536.347
-5.57252
-1.42493
536.79
-4.97121
-1.27137
537.229
-4.4468
-1.13823
537.659
-3.9911
-1.02321
538.08
-3.59416
-0.923852
538.492
-3.24491
-0.836625
538.894
-2.93126
-0.761172
-2.59413
-0.670783
548.38
5.44244
1.44926
551.188
16.1768
4.11782
555.381
25.9444
6.39914
560.515
32.7183
7.89544
565.22
34.242
8.12871
567.415
29.5025
6.78885
566.292
20.7384
4.55462
562.601
11.0907
2.16264
557.954
3.06513
0.305782
553.46
-2.74222
-0.982053
549.595
-6.5397
-1.77515
546.495
-8.77519
-2.21407
544.097
-9.90705
-2.41196
542.3
-10.2879
-2.45433
540.987
-10.187
-2.39858
540.059
-9.78059
-2.28304
539.437
-9.19113
-2.13294
539.055
-8.5033
-1.96548
538.86
-7.77669
-1.79284
538.807
-7.05655
-1.62452
538.854
-6.3715
-1.46636
538.973
-5.73903
-1.32149
539.139
-5.16582
-1.19094
539.338
-4.65196
-1.07449
539.559
-4.19779
-0.972084
539.795
-3.79964
-0.882799
540.043
-3.45167
-0.80541
540.304
-3.14662
-0.737783
540.577
-2.87592
-0.679977
-2.57653
-0.608978
548.22
3.95068
0.995076
550.742
12.3065
2.89632
554.343
20.224
4.55443
558.549
25.8657
5.6775
562.384
27.6214
5.95712
564.561
24.8457
5.24084
564.52
18.9084
3.88462
562.581
11.8763
2.32321
559.649
5.47554
0.974196
556.456
0.425227
-0.0623858
553.449
-3.20619
-0.7875
550.831
-5.59934
-1.25317
548.644
-7.02384
-1.52435
546.875
-7.75093
-1.65741
545.469
-7.98905
-1.69557
544.373
-7.8982
-1.67031
543.534
-7.59393
-1.60395
542.909
-7.15945
-1.51245
542.458
-6.65484
-1.40748
542.148
-6.12519
-1.298
541.947
-5.59978
-1.18985
541.83
-5.09977
-1.08716
541.778
-4.63602
-0.992049
541.776
-4.21277
-0.905381
541.813
-3.83396
-0.828025
541.881
-3.49954
-0.759997
541.976
-3.20738
-0.700968
542.1
-2.95403
-0.649948
542.254
-2.73605
-0.607371
-2.48639
-0.553693
547.962
2.75527
0.68759
550.14
9.15923
2.07248
553.238
15.5607
3.33774
556.837
20.2752
4.23137
560.226
22.0892
4.54113
562.504
20.5786
4.17802
563.2
16.6049
3.33824
562.444
11.5064
2.29361
560.726
6.53468
1.30308
558.568
2.31897
0.477919
556.308
-0.906032
-0.151889
554.169
-3.20248
-0.599245
552.26
-4.70827
-0.895776
550.607
-5.60062
-1.07618
549.208
-6.04183
-1.17109
548.041
-6.16368
-1.20467
547.08
-6.06729
-1.19544
546.3
-5.82843
-1.15741
545.674
-5.5033
-1.10117
545.179
-5.13432
-1.035
544.792
-4.74968
-0.964566
544.493
-4.37116
-0.894278
544.267
-4.01146
-0.826843
544.101
-3.67716
-0.76377
543.983
-3.37441
-0.7065
543.907
-3.10578
-0.655695
543.868
-2.87243
-0.611651
543.868
-2.67441
-0.57431
543.912
-2.51571
-0.544471
-2.3267
-0.505995
547.683
1.81847
0.481305
549.507
6.61494
1.53051
552.2
11.6678
2.53966
555.415
15.5027
3.28746
558.578
17.2109
3.61175
560.984
16.5205
3.45386
562.243
13.9344
2.92815
562.336
10.3349
2.20988
561.534
6.60713
1.47281
560.17
3.2684
0.813233
558.549
0.560829
0.272798
556.865
-1.47127
-0.141369
555.243
-2.89159
-0.440911
553.748
-3.8098
-0.645465
552.409
-4.34093
-0.775286
551.231
-4.58665
-0.848177
550.21
-4.62949
-0.878922
549.333
-4.53376
-0.879379
548.589
-4.34845
-0.858949
547.961
-4.11106
-0.82516
547.434
-3.84704
-0.783398
546.995
-3.57671
-0.738113
546.63
-3.31277
-0.692292
546.329
-3.06274
-0.647849
546.081
-2.83368
-0.606575
545.881
-2.62985
-0.569572
545.724
-2.45511
-0.537548
545.61
-2.31227
-0.511192
545.549
-2.21563
-0.491654
-2.09747
-0.466353
547.391
1.10106
0.339959
548.907
4.54177
1.17673
551.305
8.30608
2.02695
554.297
11.2325
2.68289
557.36
12.7083
3.01464
559.926
12.5238
2.98083
561.62
10.96
2.65228
562.343
8.56813
2.1462
562.241
5.93101
1.58463
561.536
3.45211
1.0481
560.452
1.34851
0.580267
559.173
-0.302841
0.198616
557.829
-1.5148
-0.0967624
556.507
-2.34673
-0.314887
555.255
-2.87306
-0.468183
554.101
-3.16587
-0.569288
553.057
-3.28717
-0.629706
552.124
-3.28719
-0.659313
551.299
-3.20524
-0.666346
550.575
-3.07192
-0.657648
549.943
-2.90844
-0.638341
549.393
-2.73208
-0.612807
548.916
-2.55412
-0.584187
548.503
-2.38179
-0.554665
548.145
-2.22198
-0.526251
547.837
-2.07958
-0.500364
547.574
-1.96046
-0.477951
547.354
-1.86868
-0.460264
547.188
-1.83139
-0.448699
-1.79296
-0.434742
547.153
0.561551
0.233399
548.426
2.81626
0.951298
550.623
5.2893
1.71444
553.47
7.27579
2.31821
556.506
8.39643
2.65998
559.231
8.49354
2.70939
561.289
7.68728
2.5112
562.532
6.28217
2.14666
563.001
4.62824
1.70558
562.84
2.995
1.25582
562.222
1.54875
0.840437
561.308
0.366682
0.48227
560.229
-0.537833
0.189163
559.082
-1.18921
-0.0405728
557.933
-1.62846
-0.213544
556.824
-1.89996
-0.338288
555.781
-2.04446
-0.423607
554.817
-2.0964
-0.477698
553.937
-2.08352
-0.507805
553.142
-2.02782
-0.520199
552.428
-1.94492
-0.519806
551.789
-1.8477
-0.510942
551.219
-1.74483
-0.496861
550.711
-1.64226
-0.479964
550.257
-1.5456
-0.462416
549.853
-1.45928
-0.445889
549.491
-1.39019
-0.431447
549.167
-1.34124
-0.420704
548.889
-1.35093
-0.414974
-1.39417
-0.410767
547.004
0.185551
0.136103
548.101
1.32688
0.825862
550.137
2.5114
1.55093
552.866
3.52409
2.13495
555.894
4.16597
2.501
558.784
4.33855
2.6221
561.183
4.06659
2.52265
562.896
3.47066
2.26011
563.888
2.70645
1.90334
564.234
1.90696
1.51172
564.061
1.1648
1.12816
563.507
0.531739
0.779589
562.7
0.0262379
0.479719
561.744
-0.35502
0.232633
560.717
-0.626825
0.0363256
559.674
-0.808582
-0.114391
558.653
-0.919853
-0.226081
557.678
-0.978106
-0.305548
556.763
-0.99794
-0.359234
555.913
-0.991218
-0.392984
555.132
-0.966625
-0.411623
554.417
-0.931378
-0.419464
553.765
-0.890469
-0.419899
553.17
-0.847525
-0.415567
552.628
-0.805885
-0.408783
552.131
-0.768235
-0.401452
551.672
-0.740345
-0.394741
551.242
-0.722545
-0.390412
550.833
-0.751407
-0.389026
-0.848638
-0.393427
546.941
0.0639227
547.912
0.758697
549.724
1.48079
552.259
2.0859
555.231
2.51149
558.27
2.72731
561.026
2.73812
563.259
2.57918
564.856
2.30245
565.815
1.96035
566.204
1.59638
566.129
1.24239
565.704
0.918768
565.033
0.63618
564.205
0.398228
563.29
0.203917
562.338
0.049482
561.387
-0.0701788
560.46
-0.160581
559.574
-0.227154
558.735
-0.274745
557.948
-0.307775
557.213
-0.329938
556.529
-0.344242
555.891
-0.353326
555.294
-0.359448
554.728
-0.363925
554.181
-0.36922
553.61
-0.373328
-0.385964
535.566
6.0272
16.5153
126.027
20.0396
54.4065
126.811
129.108
129.661
-26.1891
119.457
5.86251
26.897
-14.8472
-27.033
25.3261
1.77025
14.7838
0.304718
1.22444
-0.0163384
-1.51289
-19.7316
9.07428
-1.0433
-8.81307
20.5137
5.76913
-22.2178
-0.651857
22.722
-5.62146
3.90839
-24.1371
24.5763
-0.450653
-3.89693
2.77381
-25.7968
26.1705
-0.324839
-2.82272
2.01519
-27.1953
27.5057
-0.238583
-2.08705
1.48989
-28.3497
28.6035
-0.17784
-1.56587
1.12021
-29.2901
29.4958
-0.134536
-1.19137
0.854327
-30.0509
30.2169
-0.103074
-0.917208
0.656632
-30.6639
30.7974
-0.0794507
-0.710676
-31.1702
1.95349
125.65
-0.464302
-2.29414
-31.1768
-31.2458
-31.252
511.57
-2.64696
-7.71569
-126.449