/*--------------------------------*- C++ -*----------------------------------*\
  =========                 |
  \\      /  F ield         | OpenFOAM: The Open Source CFD Toolbox
   \\    /   O peration     | Website:  https://openfoam.org
    \\  /    A nd           | Version:  7
     \\/     M anipulation  |
\*---------------------------------------------------------------------------*/
FoamFile
{
    version     2.0;
    format      ascii;
    class       volVectorField;
    location    "300";
    object      U;
}
// * * * * * * * * * * * * * * * * * * * * * * * * * * * * * * * * * * * * * //

dimensions      [0 1 -1 0 0 0 0];

internalField   nonuniform List<vector> 
27370
(
(13.8846 0.0862942 0.0857612)
(13.0647 0.333606 0.332435)
(11.0083 0.373455 0.364865)
(5.09999 0.518517 0.484037)
(-0.736301 -0.0932767 -0.114214)
(2.87911 -0.169531 -0.178897)
(6.1119 -0.125877 -0.128737)
(8.31841 -0.0843482 -0.0852184)
(9.78403 -0.0563653 -0.0566795)
(10.775 -0.038666 -0.0388096)
(11.4663 -0.0274016 -0.0274846)
(11.9637 -0.0199682 -0.0200257)
(12.3297 -0.0147683 -0.0148121)
(12.6328 -0.0209602 -0.0210261)
(12.8838 -0.0305548 -0.0306596)
(13.0273 -0.0246965 -0.0247881)
(13.1418 -0.0201148 -0.0201962)
(13.2362 -0.0165832 -0.0166565)
(13.315 -0.0138361 -0.0139027)
(13.3812 -0.011662 -0.0117229)
(13.4374 -0.00991506 -0.00997109)
(13.4854 -0.00849596 -0.00854761)
(13.5273 -0.0072684 -0.0073161)
(13.5606 -0.00634175 -0.00638592)
(13.6004 -0.00492629 -0.00496777)
(13.8902 0.228745 0.0749279)
(13.2562 0.845389 0.278214)
(11.6604 1.60237 0.313589)
(7.24552 3.75077 0.411802)
(1.55791 -1.39957 -0.151643)
(5.3356 -1.41061 -0.157928)
(7.65975 -0.955392 -0.107293)
(9.21052 -0.645393 -0.0721548)
(10.2981 -0.444304 -0.049509)
(11.0798 -0.313441 -0.034865)
(11.6531 -0.226972 -0.0252242)
(12.0814 -0.168082 -0.0186726)
(12.4059 -0.126068 -0.0139995)
(12.6945 -0.101241 -0.0200366)
(12.9397 -0.0878636 -0.0290752)
(13.0705 -0.0712064 -0.0236342)
(13.1759 -0.0582425 -0.0193554)
(13.2636 -0.0481943 -0.0160326)
(13.3373 -0.0403405 -0.0134316)
(13.3996 -0.0340995 -0.0113618)
(13.4528 -0.0290649 -0.00969088)
(13.4985 -0.0249489 -0.00832715)
(13.5384 -0.0214181 -0.00714748)
(13.5706 -0.0185518 -0.00625325)
(13.6088 -0.0149653 -0.00485793)
(13.9145 0.303962 0.0599247)
(13.5043 1.03093 0.202807)
(12.6371 2.0531 0.221358)
(10.7628 4.54587 0.263693)
(0.726031 -0.013059 0.0534079)
(8.18489 -2.66335 -0.151044)
(9.16876 -1.72906 -0.0999541)
(9.96407 -1.1956 -0.0701236)
(10.6394 -0.859216 -0.0505157)
(11.2024 -0.630332 -0.0370181)
(11.6646 -0.469691 -0.0275484)
(12.0402 -0.355254 -0.0208181)
(12.3437 -0.272136 -0.0159382)
(12.588 -0.209941 -0.0122785)
(12.8273 -0.164032 -0.0179488)
(13.0416 -0.132771 -0.0262395)
(13.1501 -0.108752 -0.0215578)
(13.2397 -0.0898654 -0.017826)
(13.3155 -0.0749745 -0.0148868)
(13.3802 -0.0631861 -0.0125574)
(13.4355 -0.0537257 -0.0106853)
(13.4833 -0.0460286 -0.00916141)
(13.5246 -0.0396756 -0.00790887)
(13.561 -0.0342406 -0.00682068)
(13.5907 -0.0295802 -0.00599229)
(13.6262 -0.0246002 -0.00467825)
(13.9542 0.317141 0.0457794)
(13.7146 1.01802 0.14353)
(13.4642 2.06624 0.295723)
(13.1922 3.66931 0.280251)
(14.1366 6.41836 0.257073)
(11.5274 -5.61207 -0.185752)
(11.6502 -3.27638 -0.132978)
(11.3486 -2.00431 -0.0795061)
(11.3941 -1.42559 -0.056475)
(11.5672 -1.07421 -0.0426751)
(11.791 -0.831505 -0.0330611)
(12.0278 -0.651179 -0.0258755)
(12.257 -0.513246 -0.0203789)
(12.4678 -0.406754 -0.0161427)
(12.655 -0.323735 -0.0128432)
(12.8176 -0.258041 -0.0102186)
(12.9971 -0.203537 -0.0153658)
(13.1695 -0.1624 -0.0227792)
(13.2528 -0.134941 -0.0189659)
(13.3237 -0.112947 -0.0158774)
(13.3851 -0.0952543 -0.0134018)
(13.4385 -0.0810052 -0.0114075)
(13.485 -0.0694122 -0.00978392)
(13.5257 -0.0598727 -0.00844807)
(13.5614 -0.0519187 -0.00734034)
(13.5932 -0.0450789 -0.00637155)
(13.6194 -0.0391048 -0.00563009)
(13.6513 -0.0329312 -0.00444019)
(13.9814 0.295986 0.0336859)
(13.8828 0.894416 0.0992933)
(13.8435 1.63443 0.178959)
(13.9461 2.52052 0.144739)
(14.8119 3.23109 0.18774)
(16.4342 2.99381 0.090991)
(17.29 0.285653 0.00905505)
(14.8054 -1.56273 -0.0948452)
(13.3991 -1.54552 -0.0918979)
(12.8685 -1.24554 -0.0734703)
(12.6818 -1.0049 -0.0587951)
(12.6388 -0.825272 -0.0480094)
(12.6653 -0.684615 -0.0397014)
(12.7294 -0.569498 -0.0329734)
(12.8135 -0.473452 -0.0273952)
(12.9062 -0.393015 -0.0227402)
(12.9998 -0.325486 -0.0188368)
(13.0896 -0.268424 -0.0155385)
(13.1746 -0.221267 -0.0127704)
(13.3065 -0.177633 -0.0192153)
(13.3657 -0.149878 -0.0162305)
(13.4181 -0.127185 -0.0137739)
(13.4649 -0.108559 -0.0117671)
(13.5066 -0.0932703 -0.0101203)
(13.5436 -0.0806353 -0.00875996)
(13.5766 -0.0701055 -0.00762725)
(13.606 -0.0612315 -0.00667913)
(13.6327 -0.0535444 -0.0058438)
(13.6549 -0.0467565 -0.00520163)
(13.6826 -0.0397612 -0.00415658)
(13.9972 0.256966 0.0240229)
(13.987 0.744805 0.0684533)
(14.0359 1.25242 0.113851)
(14.2856 1.67938 0.153357)
(14.78 1.75326 0.160338)
(15.2788 1.52574 0.0724882)
(15.3621 0.443298 0.0195772)
(14.5163 -0.386698 -0.040633)
(13.9568 -0.624372 -0.0608642)
(13.6067 -0.669873 -0.0620289)
(13.4123 -0.634714 -0.0573178)
(13.3096 -0.575 -0.0512627)
(13.2621 -0.511335 -0.0452428)
(13.2497 -0.449933 -0.0396139)
(13.2601 -0.392687 -0.0344566)
(13.2851 -0.340255 -0.0297905)
(13.319 -0.292765 -0.0256018)
(13.3577 -0.250191 -0.0218777)
(13.3991 -0.212355 -0.0186156)
(13.4404 -0.181069 -0.0158662)
(13.4794 -0.155229 -0.0136038)
(13.5155 -0.133532 -0.0117131)
(13.5489 -0.115379 -0.0101328)
(13.5794 -0.10019 -0.00881101)
(13.6072 -0.087436 -0.0077026)
(13.6326 -0.076668 -0.00676833)
(13.6557 -0.0674985 -0.00597933)
(13.6771 -0.0594959 -0.00527954)
(13.6952 -0.0523711 -0.00474011)
(13.7184 -0.044967 -0.00384789)
(14.0059 0.21119 0.0167237)
(14.0406 0.602771 0.0468295)
(14.1267 0.96958 0.0744858)
(14.3222 1.24206 0.0951449)
(14.6166 1.26638 0.0969163)
(14.845 0.927236 0.0682444)
(14.8036 0.410579 0.0285043)
(14.5138 -0.0472949 -0.00714709)
(14.1802 -0.297064 -0.0249824)
(13.9229 -0.405886 -0.032036)
(13.7469 -0.437207 -0.0335774)
(13.6327 -0.42992 -0.0324726)
(13.5625 -0.404653 -0.0302414)
(13.5231 -0.371616 -0.027581)
(13.505 -0.335811 -0.0248056)
(13.502 -0.299813 -0.0220743)
(13.5094 -0.265015 -0.01947)
(13.524 -0.232327 -0.0170444)
(13.5433 -0.202223 -0.0148375)
(13.5653 -0.175767 -0.0128978)
(13.5882 -0.152989 -0.0112404)
(13.6108 -0.133408 -0.00981641)
(13.6326 -0.116661 -0.00859897)
(13.6533 -0.102379 -0.00756174)
(13.6728 -0.0901972 -0.00667891)
(13.6911 -0.0797846 -0.00592604)
(13.7082 -0.0708346 -0.00528534)
(13.7244 -0.0629752 -0.00471441)
(13.7385 -0.0559385 -0.00427417)
(13.7572 -0.0485155 -0.00353369)
(14.0095 0.166368 0.0114797)
(14.0622 0.476386 0.0320305)
(14.1563 0.75436 0.0499333)
(14.3124 0.949102 0.0620938)
(14.5091 0.970747 0.0630858)
(14.6514 0.762508 0.0483506)
(14.643 0.435035 0.0265029)
(14.4922 0.115699 0.00546878)
(14.2887 -0.0999588 -0.00798024)
(14.1055 -0.225209 -0.0155172)
(13.9612 -0.288066 -0.0190835)
(13.8547 -0.311622 -0.0202276)
(13.7797 -0.312158 -0.020023)
(13.7289 -0.299759 -0.0190901)
(13.6963 -0.280366 -0.0177745)
(13.6772 -0.25749 -0.0162789)
(13.6683 -0.233249 -0.0147236)
(13.6669 -0.20905 -0.0131867)
(13.6711 -0.185839 -0.0117224)
(13.6791 -0.164364 -0.0103837)
(13.6895 -0.14519 -0.00919318)
(13.7011 -0.128262 -0.00814127)
(13.7134 -0.113454 -0.00722141)
(13.7258 -0.100588 -0.00642296)
(13.738 -0.0894506 -0.00573326)
(13.75 -0.0798221 -0.00513869)
(13.7616 -0.0714833 -0.00462969)
(13.773 -0.0641337 -0.00417552)
(13.7833 -0.0575432 -0.00382629)
(13.7977 -0.0504455 -0.00323002)
(14.01 0.126646 0.00782396)
(14.0659 0.369961 0.0220251)
(14.1552 0.588352 0.0342509)
(14.2827 0.739142 0.0423131)
(14.4268 0.766505 0.0434205)
(14.5308 0.641397 0.0355651)
(14.5432 0.424948 0.0230132)
(14.4658 0.196665 0.00995871)
(14.3417 0.0185328 0.000187697)
(14.2142 -0.102863 -0.00633029)
(14.1019 -0.177112 -0.0102277)
(14.0105 -0.216874 -0.0122503)
(13.9397 -0.233581 -0.0130547)
(13.8864 -0.235515 -0.0130931)
(13.8474 -0.228312 -0.0126612)
(13.8197 -0.21567 -0.0119512)
(13.801 -0.200001 -0.0110879)
(13.7893 -0.182947 -0.0101555)
(13.7831 -0.165643 -0.00921319)
(13.7811 -0.148931 -0.00830802)
(13.7822 -0.133426 -0.00746999)
(13.7853 -0.119334 -0.00670763)
(13.7898 -0.106717 -0.00602485)
(13.7953 -0.0955517 -0.00542063)
(13.8014 -0.0857488 -0.00489102)
(13.8079 -0.0771882 -0.00442994)
(13.8147 -0.0697361 -0.00403371)
(13.8218 -0.0631695 -0.00368149)
(13.8285 -0.0573137 -0.00341251)
(13.8389 -0.0508361 -0.00294892)
(14.0087 0.09328 0.00533353)
(14.0603 0.282709 0.0153276)
(14.1401 0.458154 0.0240937)
(14.2467 0.581422 0.0299666)
(14.3612 0.614212 0.031317)
(14.4478 0.540112 0.0271422)
(14.4751 0.394949 0.0196481)
(14.4413 0.229473 0.0112408)
(14.3683 0.0861903 0.00417767)
(14.2821 -0.0222544 -0.0011167)
(14.1979 -0.096675 -0.00473404)
(14.1232 -0.143098 -0.00698961)
(14.0604 -0.16874 -0.00825061)
(14.0093 -0.179842 -0.00881818)
(13.9686 -0.181168 -0.0089179)
(13.9369 -0.176144 -0.00871022)
(13.9126 -0.167162 -0.00830735)
(13.8945 -0.155909 -0.00778911)
(13.8813 -0.143581 -0.00721307)
(13.8723 -0.131057 -0.00662284)
(13.8664 -0.118965 -0.00604963)
(13.863 -0.107641 -0.00550956)
(13.8615 -0.0972655 -0.00501243)
(13.8614 -0.0879148 -0.00456312)
(13.8624 -0.0795947 -0.00416325)
(13.8642 -0.0722674 -0.00381194)
(13.8667 -0.0658774 -0.00350955)
(13.87 -0.0602803 -0.00324373)
(13.8735 -0.0553821 -0.00304306)
(13.8801 -0.0497774 -0.00269864)
(14.0063 0.0662144 0.00366752)
(14.0502 0.212136 0.0108915)
(14.1196 0.354125 0.0174781)
(14.2109 0.457031 0.0220753)
(14.3084 0.492709 0.0235901)
(14.3874 0.450834 0.0214577)
(14.4263 0.353202 0.0168691)
(14.4211 0.233121 0.0112898)
(14.3829 0.120428 0.00613858)
(14.3276 0.0282776 0.00191791)
(14.2668 -0.040196 -0.00124972)
(14.2078 -0.0870442 -0.00345856)
(14.1543 -0.116376 -0.00489187)
(14.1078 -0.132562 -0.00573735)
(14.0682 -0.139359 -0.00615612)
(14.0352 -0.139678 -0.0062723)
(14.008 -0.135688 -0.00617984)
(13.9859 -0.128981 -0.00594936)
(13.9682 -0.120719 -0.00563376)
(13.9542 -0.111754 -0.00527339)
(13.9433 -0.102702 -0.00489836)
(13.9349 -0.0939496 -0.00452782)
(13.9286 -0.0857358 -0.00417476)
(13.924 -0.0781989 -0.00384752)
(13.9207 -0.0714077 -0.0035512)
(13.9186 -0.0653878 -0.00328851)
(13.9174 -0.060152 -0.00306239)
(13.9172 -0.0556327 -0.00286796)
(13.9178 -0.0518528 -0.00272342)
(13.9209 -0.0473456 -0.00248417)
(14.0032 0.0448746 0.00256115)
(14.0384 0.155383 0.00798586)
(14.0982 0.269047 0.0131848)
(14.1787 0.354066 0.0169971)
(14.2665 0.389413 0.0185957)
(14.3429 0.368126 0.0176279)
(14.3913 0.303572 0.0147735)
(14.4063 0.217719 0.010968)
(14.393 0.131536 0.00714778)
(14.3612 0.0566029 0.00377579)
(14.3197 -0.00254579 0.00104839)
(14.2748 -0.0457159 -0.00101493)
(14.2306 -0.0749368 -0.00248718)
(14.1895 -0.0930452 -0.00347657)
(14.1524 -0.102796 -0.00409054)
(14.1197 -0.106511 -0.00442106)
(14.0913 -0.106022 -0.00454356)
(14.0669 -0.10273 -0.00451815)
(14.0462 -0.0976851 -0.00439199)
(14.0287 -0.0916655 -0.00420198)
(14.0141 -0.0852422 -0.00397658)
(14.002 -0.0788015 -0.00373602)
(13.9919 -0.0725989 -0.00349489)
(13.9836 -0.0668013 -0.00326358)
(13.9768 -0.0615142 -0.00304938)
(13.9713 -0.0568067 -0.00285753)
(13.967 -0.0527491 -0.00269232)
(13.9637 -0.0493423 -0.0025557)
(13.9616 -0.0467762 -0.0024554)
(13.9612 -0.0435761 -0.00230789)
(13.9999 0.0285025 0.00181077)
(14.0267 0.109678 0.00610059)
(14.0789 0.197399 0.0104414)
(14.152 0.264755 0.0137694)
(14.2346 0.29672 0.0154122)
(14.3111 0.288417 0.0151361)
(14.3675 0.247722 0.0133554)
(14.3976 0.188684 0.0106908)
(14.4031 0.125671 0.00779038)
(14.3897 0.0679344 0.00505197)
(14.364 0.0200551 0.00268858)
(14.3314 -0.0166796 0.000779223)
(14.2961 -0.0429906 -0.000684725)
(14.2606 -0.0605242 -0.0017553)
(14.2266 -0.0711543 -0.00249909)
(14.1952 -0.0766048 -0.00298174)
(14.1665 -0.0783151 -0.00326219)
(14.1409 -0.0774293 -0.00339063)
(14.1182 -0.0748284 -0.00340854)
(14.0983 -0.0711776 -0.0033496)
(14.0809 -0.0669709 -0.00324071)
(14.0659 -0.0625569 -0.00310229)
(14.0528 -0.0581771 -0.00294986)
(14.0415 -0.0539996 -0.00279511)
(14.0318 -0.0501436 -0.00264674)
(14.0234 -0.0467013 -0.00251187)
(14.0162 -0.0437875 -0.0023951)
(14.0101 -0.0414543 -0.00230487)
(14.0054 -0.0401112 -0.00223741)
(14.0015 -0.0384189 -0.00216984)
(13.9971 0.0161921 0.00125238)
(14.017 0.0725092 0.00490779)
(14.0636 0.135033 0.00877766)
(14.1318 0.184105 0.0118301)
(14.2116 0.210145 0.0135234)
(14.2895 0.209604 0.0136978)
(14.3529 0.18646 0.0126156)
(14.3953 0.149035 0.0107041)
(14.4158 0.10653 0.00843445)
(14.4177 0.0656234 0.0061451)
(14.4054 0.0301865 0.00404859)
(14.3838 0.00181208 0.00225449)
(14.3565 -0.0194467 0.000796054)
(14.3266 -0.0343949 -0.00033984)
(14.2961 -0.044171 -0.00118946)
(14.2663 -0.0499291 -0.00179743)
(14.2381 -0.0526926 -0.00220887)
(14.2119 -0.0533087 -0.00246542)
(14.188 -0.0524478 -0.00260353)
(14.1663 -0.0506263 -0.00265418)
(14.1468 -0.0482331 -0.00264301)
(14.1294 -0.0455515 -0.0025905)
(14.1139 -0.042783 -0.0025128)
(14.1001 -0.0400751 -0.00242264)
(14.0878 -0.0375391 -0.00232967)
(14.0769 -0.0352704 -0.00224268)
(14.0672 -0.0334083 -0.00216563)
(14.0583 -0.0320278 -0.00211342)
(14.0512 -0.0317709 -0.00206786)
(14.043 -0.0317169 -0.00206958)
(13.9961 0.00646603 0.000725718)
(14.0109 0.0416669 0.00427098)
(14.053 0.0790313 0.00794964)
(14.1171 0.109342 0.0108938)
(14.1947 0.127408 0.012704)
(14.2744 0.130615 0.0132452)
(14.3448 0.120169 0.0126672)
(14.3984 0.100234 0.011276)
(14.4326 0.0758692 0.00943196)
(14.4484 0.0511788 0.00743381)
(14.4489 0.0288603 0.00549474)
(14.4378 0.0102901 0.00374621)
(14.4187 -0.00416679 0.00225196)
(14.3946 -0.0147715 0.00102807)
(14.368 -0.0220861 6.12168e-05)
(14.3405 -0.0267615 -0.000676798)
(14.3133 -0.029417 -0.00122011)
(14.2871 -0.030587 -0.00160355)
(14.2624 -0.0307058 -0.00185964)
(14.2394 -0.0301139 -0.00201735)
(14.2183 -0.0290703 -0.00210151)
(14.1989 -0.0277683 -0.00213282)
(14.1812 -0.0263453 -0.00212802)
(14.1651 -0.0249088 -0.00210093)
(14.1505 -0.0235368 -0.00206185)
(14.1372 -0.0223052 -0.0020212)
(14.125 -0.0213509 -0.00198191)
(14.1133 -0.020687 -0.00196387)
(14.1039 -0.0211643 -0.0019337)
(14.0899 -0.0227093 -0.0019951)
(13.9983 0.000679619 0.000315614)
(14.0092 0.0162419 0.00396692)
(14.0448 0.033275 0.00770418)
(14.1027 0.0486942 0.0107971)
(14.1765 0.0599142 0.0129497)
(14.2572 0.0651273 0.0140027)
(14.3347 0.0639534 0.0139919)
(14.4007 0.0574909 0.0131126)
(14.4506 0.047688 0.0116439)
(14.483 0.0364789 0.0098573)
(14.4992 0.0253864 0.00797497)
(14.5018 0.0154054 0.00615836)
(14.4939 0.00703414 0.00450855)
(14.4783 0.000403875 0.00307647)
(14.4578 -0.00458174 0.00187746)
(14.4343 -0.00814115 0.000903735)
(14.4094 -0.0105355 0.000134221)
(14.3842 -0.0120204 -0.000458407)
(14.3595 -0.0128214 -0.000903138)
(14.3357 -0.013127 -0.00122789)
(14.3132 -0.0130868 -0.00145793)
(14.292 -0.0128174 -0.00161531)
(14.2722 -0.012406 -0.00171858)
(14.2538 -0.0119195 -0.00178357)
(14.2367 -0.0114113 -0.00182246)
(14.2206 -0.0109197 -0.00184781)
(14.2058 -0.0105343 -0.00186275)
(14.1908 -0.0102444 -0.00189139)
(14.1794 -0.01042 -0.00188974)
(14.1559 -0.0119593 -0.00198267)
(13.8901 0.0750473 0.228267)
(13.256 0.278874 0.843617)
(11.6589 0.314711 1.597)
(7.2491 0.412451 3.75663)
(1.64459 -0.1519 -1.556)
(5.38167 -0.154549 -1.46201)
(7.67219 -0.105759 -0.970986)
(9.21371 -0.0715874 -0.650809)
(10.2989 -0.049275 -0.446528)
(11.0801 -0.0347472 -0.314557)
(11.6532 -0.0251519 -0.227655)
(12.0814 -0.0186205 -0.16857)
(12.4059 -0.0139589 -0.126446)
(12.6945 -0.019975 -0.101564)
(12.9397 -0.0289783 -0.088171)
(13.0705 -0.0235486 -0.071476)
(13.1759 -0.0192788 -0.0584827)
(13.2636 -0.0159632 -0.0484111)
(13.3373 -0.0133681 -0.040538)
(13.3996 -0.0113034 -0.0342804)
(13.4528 -0.00963708 -0.0292314)
(13.4985 -0.00827742 -0.0251025)
(13.5384 -0.00710146 -0.02156)
(13.5706 -0.00621057 -0.0186834)
(13.6088 -0.0048178 -0.0150888)
(13.902 0.202032 0.201803)
(13.3913 0.719635 0.718329)
(12.1388 1.37715 1.3736)
(8.81522 3.15785 3.14512)
(4.62498 -1.60674 -1.61375)
(7.24289 -1.19623 -1.21179)
(8.77426 -0.805247 -0.813455)
(9.87608 -0.556949 -0.560543)
(10.704 -0.393802 -0.395488)
(11.3334 -0.284296 -0.285219)
(11.8155 -0.209599 -0.210196)
(12.1877 -0.15737 -0.157811)
(12.477 -0.11944 -0.119789)
(12.7521 -0.09642 -0.0967199)
(12.9917 -0.0834263 -0.0837098)
(13.1109 -0.0679872 -0.0682385)
(13.2082 -0.0558859 -0.0561118)
(13.2897 -0.0464358 -0.0466411)
(13.3587 -0.0390045 -0.0391925)
(13.4174 -0.0330699 -0.033243)
(13.4679 -0.0282623 -0.0284221)
(13.5113 -0.0243164 -0.0244643)
(13.5494 -0.0209282 -0.0210651)
(13.5805 -0.0181633 -0.0182904)
(13.6171 -0.0146774 -0.0147968)
(13.9299 0.273287 0.163612)
(13.5842 0.907211 0.541409)
(12.8897 1.79952 0.992031)
(11.8633 4.07539 2.27841)
(11.2219 9.45278 4.83079)
(5.3689 -2.88359 -1.35117)
(9.34002 -2.19037 -1.13673)
(9.93195 -1.46985 -0.771408)
(10.4883 -1.04343 -0.551877)
(10.9989 -0.765994 -0.405759)
(11.449 -0.572393 -0.303016)
(11.8345 -0.433173 -0.229142)
(12.158 -0.331756 -0.175415)
(12.426 -0.256729 -0.135709)
(12.6463 -0.199891 -0.105571)
(12.8761 -0.156717 -0.0867626)
(13.0866 -0.12644 -0.0757124)
(13.186 -0.104076 -0.0623702)
(13.2688 -0.0863819 -0.0517603)
(13.3395 -0.0723382 -0.043361)
(13.4001 -0.0611575 -0.0366763)
(13.4522 -0.0521448 -0.0312858)
(13.4975 -0.0447843 -0.0268833)
(13.5369 -0.0386885 -0.023245)
(13.5716 -0.0334648 -0.0201061)
(13.6003 -0.0289575 -0.0175305)
(13.6343 -0.0241814 -0.014257)
(13.9636 0.29014 0.126134)
(13.7687 0.91538 0.392242)
(13.5944 1.80585 0.770862)
(13.4315 3.15988 1.21979)
(14.3648 5.23533 1.8707)
(20.2448 7.86589 2.75947)
(16.5775 -5.77011 -1.97892)
(12.0907 -2.73998 -0.98459)
(11.6898 -1.75631 -0.628392)
(11.677 -1.27543 -0.455938)
(11.7953 -0.974818 -0.348958)
(11.9698 -0.763591 -0.273461)
(12.1651 -0.60443 -0.216363)
(12.3611 -0.480921 -0.172061)
(12.5462 -0.384226 -0.137425)
(12.7139 -0.307954 -0.110122)
(12.862 -0.247138 -0.0882543)
(13.0362 -0.195318 -0.0743596)
(13.2068 -0.155237 -0.0658936)
(13.2833 -0.129508 -0.0550058)
(13.349 -0.108801 -0.0461919)
(13.4063 -0.0920529 -0.039095)
(13.4564 -0.0785 -0.0333577)
(13.5003 -0.0674315 -0.0286728)
(13.5388 -0.058294 -0.0248072)
(13.5728 -0.0506531 -0.0215856)
(13.6032 -0.0440726 -0.0187885)
(13.6286 -0.038289 -0.0164806)
(13.6591 -0.0323908 -0.0135176)
(13.9859 0.273801 0.093653)
(13.9122 0.818397 0.275749)
(13.8919 1.47117 0.489758)
(13.9939 2.27309 0.65773)
(14.7835 2.84049 0.826945)
(16.0722 2.17418 0.642771)
(16.7585 0.353623 0.0924781)
(14.7775 -1.22894 -0.370268)
(13.5369 -1.33126 -0.397088)
(13.0147 -1.11427 -0.329878)
(12.8144 -0.915673 -0.268878)
(12.755 -0.760196 -0.221892)
(12.7649 -0.63584 -0.18496)
(12.8132 -0.532786 -0.154684)
(12.8829 -0.445881 -0.129309)
(12.963 -0.372357 -0.107924)
(13.0459 -0.310091 -0.0898597)
(13.127 -0.25718 -0.0745441)
(13.2052 -0.213234 -0.0616954)
(13.3366 -0.170368 -0.0556885)
(13.391 -0.144245 -0.0471778)
(13.4396 -0.12278 -0.0401489)
(13.4833 -0.105083 -0.034379)
(13.5224 -0.0904996 -0.0296301)
(13.5573 -0.0784096 -0.0256966)
(13.5886 -0.0683064 -0.0224134)
(13.6166 -0.0597715 -0.0196525)
(13.642 -0.0523693 -0.017239)
(13.6635 -0.0457946 -0.0152376)
(13.69 -0.0391153 -0.0126342)
(13.9995 0.239729 0.0672812)
(14.0008 0.691797 0.191851)
(14.0592 1.15075 0.315917)
(14.2973 1.5257 0.413847)
(14.7403 1.58437 0.435653)
(15.1972 1.40931 0.323225)
(15.2694 0.450375 0.0985219)
(14.515 -0.301128 -0.0971035)
(14.0099 -0.540108 -0.157829)
(13.6768 -0.599446 -0.166681)
(13.4837 -0.578329 -0.156992)
(13.3773 -0.529818 -0.142113)
(13.3244 -0.47492 -0.126522)
(13.3058 -0.420579 -0.111553)
(13.3098 -0.369125 -0.0976061)
(13.3286 -0.321466 -0.0848318)
(13.3568 -0.277926 -0.0732671)
(13.3903 -0.238654 -0.0629245)
(13.4272 -0.203585 -0.0538035)
(13.4645 -0.174179 -0.0460671)
(13.5002 -0.149743 -0.0396219)
(13.5336 -0.129147 -0.0341994)
(13.5646 -0.111847 -0.0296462)
(13.5932 -0.0973255 -0.0258265)
(13.6194 -0.0850977 -0.0226154)
(13.6434 -0.0747505 -0.0199033)
(13.6653 -0.065922 -0.0176031)
(13.6857 -0.0582111 -0.0155802)
(13.7032 -0.0513074 -0.013897)
(13.7253 -0.0442403 -0.0116722)
(14.0068 0.198376 0.0471199)
(14.0461 0.565327 0.132255)
(14.1348 0.904663 0.209252)
(14.3227 1.15176 0.264569)
(14.5949 1.17285 0.269741)
(14.8032 0.869177 0.191714)
(14.7687 0.403222 0.086668)
(14.5093 -0.0163804 -0.0129163)
(14.2022 -0.255485 -0.0651561)
(13.9573 -0.365713 -0.0870218)
(13.7859 -0.40177 -0.0929336)
(13.6723 -0.399608 -0.0909453)
(13.6009 -0.379046 -0.0853963)
(13.5592 -0.350138 -0.0783697)
(13.5384 -0.317917 -0.070842)
(13.5324 -0.285017 -0.0633178)
(13.5368 -0.252895 -0.0560721)
(13.5484 -0.222505 -0.0492781)
(13.565 -0.194335 -0.0430583)
(13.5845 -0.169434 -0.0375461)
(13.6052 -0.147856 -0.0327978)
(13.6259 -0.129221 -0.0287032)
(13.646 -0.113228 -0.0251894)
(13.6653 -0.0995466 -0.0221869)
(13.6836 -0.0878497 -0.0196253)
(13.7008 -0.0778321 -0.0174372)
(13.7169 -0.0692079 -0.0155676)
(13.7323 -0.0616323 -0.0139167)
(13.7458 -0.0548129 -0.0125421)
(13.7637 -0.0477325 -0.0106922)
(14.0097 0.157164 0.0325022)
(14.0636 0.450108 0.0910535)
(14.1575 0.711241 0.141655)
(14.3087 0.892271 0.175558)
(14.4948 0.912723 0.17858)
(14.6287 0.724154 0.138266)
(14.6238 0.423272 0.0783636)
(14.4866 0.126418 0.019205)
(14.2971 -0.0795787 -0.0198094)
(14.1226 -0.202192 -0.0421157)
(13.9829 -0.265589 -0.0530744)
(13.8785 -0.291055 -0.0569951)
(13.804 -0.29392 -0.0568876)
(13.7528 -0.283862 -0.0545595)
(13.7191 -0.266672 -0.0510344)
(13.6988 -0.245812 -0.0469192)
(13.6883 -0.223393 -0.0425799)
(13.6854 -0.200818 -0.038255)
(13.6879 -0.179027 -0.0341093)
(13.6944 -0.158742 -0.0302859)
(13.7034 -0.14053 -0.0268658)
(13.7137 -0.124388 -0.0238351)
(13.7248 -0.110221 -0.0211758)
(13.7362 -0.0978778 -0.0188613)
(13.7475 -0.087171 -0.0168576)
(13.7586 -0.0778998 -0.015128)
(13.7695 -0.0698607 -0.0136418)
(13.7803 -0.0627765 -0.0123283)
(13.7901 -0.0563907 -0.0112386)
(13.8038 -0.0496282 -0.00974386)
(14.0099 0.120178 0.0222409)
(14.0656 0.351508 0.0629612)
(14.1537 0.558795 0.0978926)
(14.2779 0.701444 0.12088)
(14.4164 0.728073 0.124255)
(14.5165 0.613523 0.102722)
(14.5308 0.412337 0.0676832)
(14.4603 0.197996 0.0306899)
(14.3441 0.027746 0.00236953)
(14.2225 -0.0899537 -0.0167521)
(14.1141 -0.163049 -0.0283797)
(14.025 -0.203057 -0.0345797)
(13.9553 -0.220686 -0.0371995)
(13.9024 -0.223826 -0.0375416)
(13.8633 -0.217911 -0.0364695)
(13.8352 -0.206543 -0.0345494)
(13.8158 -0.192087 -0.0321515)
(13.8033 -0.176159 -0.0295274)
(13.7963 -0.159875 -0.0268534)
(13.7934 -0.144051 -0.0242656)
(13.7935 -0.129296 -0.0218564)
(13.7958 -0.115835 -0.0196572)
(13.7996 -0.103749 -0.0176812)
(13.8043 -0.0930256 -0.0159281)
(13.8098 -0.0835936 -0.0143883)
(13.8157 -0.0753465 -0.0130463)
(13.8218 -0.0681613 -0.011889)
(13.8284 -0.0618347 -0.0108704)
(13.8348 -0.0561645 -0.0100334)
(13.8446 -0.0500044 -0.00886449)
(14.0085 0.0888203 0.0152072)
(14.0594 0.269719 0.0440207)
(14.1378 0.437375 0.0692657)
(14.242 0.555225 0.0862445)
(14.3533 0.58733 0.0903004)
(14.4378 0.519166 0.0788336)
(14.4661 0.383118 0.057719)
(14.4361 0.226672 0.0337465)
(14.3678 0.0894907 0.0132603)
(14.2857 -0.0153786 -0.00222791)
(14.2045 -0.0880497 -0.0129173)
(14.1319 -0.133914 -0.0196711)
(14.0704 -0.159686 -0.023517)
(14.0201 -0.171295 -0.0253195)
(13.9798 -0.173314 -0.0257329)
(13.9482 -0.169061 -0.0252265)
(13.9237 -0.160867 -0.0241308)
(13.9052 -0.15038 -0.0226819)
(13.8917 -0.138773 -0.0210503)
(13.8822 -0.1269 -0.0193642)
(13.8758 -0.11538 -0.0177165)
(13.8719 -0.104552 -0.0161579)
(13.8698 -0.094602 -0.0147185)
(13.8692 -0.0856153 -0.0134144)
(13.8697 -0.0776061 -0.0122515)
(13.8711 -0.070546 -0.0112288)
(13.8732 -0.0643863 -0.0103458)
(13.8761 -0.0589994 -0.00957692)
(13.8793 -0.0542631 -0.0089569)
(13.8854 -0.0489498 -0.00807956)
(14.0061 0.0632013 0.0104749)
(14.0492 0.20298 0.031401)
(14.1173 0.339255 0.0504881)
(14.2068 0.438244 0.0638891)
(14.3022 0.473173 0.0684077)
(14.3799 0.434682 0.0625674)
(14.4192 0.342707 0.0495628)
(14.4162 0.228637 0.0335747)
(14.3809 0.120554 0.0186186)
(14.3284 0.0315032 0.00628109)
(14.27 -0.0351362 -0.00304494)
(14.2128 -0.0810802 -0.00960114)
(14.1607 -0.110123 -0.0138952)
(14.115 -0.126398 -0.0164633)
(14.076 -0.133504 -0.0177713)
(14.0434 -0.134254 -0.0181811)
(14.0163 -0.130752 -0.0179683)
(13.9942 -0.124551 -0.0173408)
(13.9763 -0.116786 -0.0164549)
(13.9621 -0.108287 -0.0154294)
(13.951 -0.099659 -0.0143534)
(13.9423 -0.0912848 -0.0132849)
(13.9357 -0.0834037 -0.0122632)
(13.9308 -0.0761574 -0.0113136)
(13.9272 -0.0696191 -0.0104521)
(13.9247 -0.0638199 -0.00968758)
(13.9233 -0.0587762 -0.00902792)
(13.9228 -0.0544345 -0.00846488)
(13.9231 -0.0507898 -0.00802527)
(13.9258 -0.0465403 -0.00740434)
(14.0031 0.0428921 0.00731622)
(14.0375 0.148956 0.0230982)
(14.0962 0.258343 0.0382448)
(14.1753 0.340415 0.0494077)
(14.2615 0.374978 0.0541587)
(14.3369 0.355593 0.0515549)
(14.3853 0.2946 0.043437)
(14.4015 0.212793 0.0324891)
(14.3901 0.130027 0.0213825)
(14.3603 0.0576252 0.0115233)
(14.3206 0.000158131 0.00350483)
(14.2772 -0.0420225 -0.00259519)
(14.2343 -0.0707571 -0.00697317)
(14.1941 -0.0887177 -0.00993586)
(14.1578 -0.0985376 -0.0117928)
(14.1256 -0.102454 -0.0128116)
(14.0975 -0.102243 -0.0132131)
(14.0733 -0.099268 -0.0131739)
(14.0526 -0.0945512 -0.0128328)
(14.0351 -0.0888535 -0.0122988)
(14.0204 -0.0827329 -0.0116557)
(14.0082 -0.0765698 -0.0109641)
(13.998 -0.0706177 -0.0102675)
(13.9895 -0.0650435 -0.00959716)
(13.9825 -0.0599543 -0.00897506)
(13.9768 -0.055422 -0.00841709)
(13.9723 -0.051518 -0.0079362)
(13.9688 -0.0482548 -0.00753891)
(13.9665 -0.0457951 -0.00724391)
(13.9658 -0.0428122 -0.00684567)
(13.9999 0.0272483 0.00516279)
(14.026 0.105247 0.0176976)
(14.0773 0.189813 0.0304055)
(14.1492 0.254955 0.0401727)
(14.2304 0.286164 0.0450458)
(14.3059 0.278865 0.0443818)
(14.3621 0.24037 0.0393101)
(14.3928 0.184013 0.0316195)
(14.3994 0.123452 0.0231723)
(14.3875 0.0676775 0.0151575)
(14.3633 0.0212135 0.00821046)
(14.332 -0.0145953 0.00257486)
(14.2977 -0.0403654 -0.00176327)
(14.2632 -0.0576366 -0.00494877)
(14.23 -0.068195 -0.00717283)
(14.1991 -0.0736994 -0.00862624)
(14.1709 -0.0755426 -0.00948126)
(14.1456 -0.0748358 -0.00988522)
(14.1231 -0.0724368 -0.00996016)
(14.1034 -0.0689946 -0.00980536)
(14.0861 -0.0649915 -0.00950019)
(14.071 -0.0607703 -0.00910536)
(14.0579 -0.0565687 -0.00866689)
(14.0466 -0.0525535 -0.00821961)
(14.0368 -0.0488438 -0.00778962)
(14.0283 -0.045533 -0.00739778)
(14.021 -0.0427349 -0.00705946)
(14.0148 -0.0405099 -0.0067938)
(14.01 -0.0392441 -0.00660913)
(14.0058 -0.0377188 -0.00640323)
(13.9971 0.0154367 0.00354872)
(14.0165 0.0696064 0.0142663)
(14.0624 0.129961 0.0256376)
(14.1294 0.177456 0.0346129)
(14.208 0.202834 0.0396395)
(14.2847 0.202736 0.0402603)
(14.3478 0.180851 0.0371882)
(14.3903 0.145093 0.0316585)
(14.4115 0.104229 0.0250344)
(14.4144 0.0647236 0.0183218)
(14.4032 0.0303682 0.0121529)
(14.3827 0.00275878 0.00685721)
(14.3564 -0.0180037 0.00254047)
(14.3274 -0.0326626 -0.000830145)
(14.2977 -0.0422995 -0.00335793)
(14.2685 -0.0480227 -0.00517249)
(14.2409 -0.0508212 -0.00640585)
(14.2151 -0.0515167 -0.00718033)
(14.1915 -0.0507611 -0.00760341)
(14.1701 -0.0490578 -0.00776643)
(14.1508 -0.0467866 -0.00774511)
(14.1335 -0.0442247 -0.00760013)
(14.1181 -0.0415704 -0.00737931)
(14.1043 -0.0389692 -0.0071204)
(14.0921 -0.0365312 -0.00685231)
(14.0811 -0.034352 -0.00660009)
(14.0714 -0.0325693 -0.00637937)
(14.0625 -0.0312599 -0.00622009)
(14.0553 -0.031054 -0.00611358)
(14.047 -0.0311035 -0.00607315)
(13.9962 0.00607918 0.00205682)
(14.0106 0.0399901 0.0123767)
(14.0519 0.0761164 0.0231779)
(14.1148 0.105465 0.0318514)
(14.1912 0.123052 0.0372406)
(14.2698 0.126381 0.0389462)
(14.3395 0.116536 0.0373623)
(14.393 0.0974864 0.0333657)
(14.4274 0.0740574 0.0279998)
(14.4439 0.0502155 0.0221484)
(14.4452 0.0285896 0.0164451)
(14.435 0.0105385 0.0112835)
(14.4168 -0.00355729 0.00685872)
(14.3936 -0.0139296 0.00322458)
(14.3678 -0.0211098 0.000346247)
(14.341 -0.025722 -0.00185663)
(14.3144 -0.0283635 -0.0034832)
(14.2887 -0.0295524 -0.0046354)
(14.2644 -0.0297107 -0.00540905)
(14.2418 -0.0291705 -0.00588965)
(14.2209 -0.0281844 -0.00615069)
(14.2018 -0.0269419 -0.00625359)
(14.1843 -0.0255778 -0.00624813)
(14.1684 -0.024198 -0.00617528)
(14.1539 -0.0228797 -0.00606638)
(14.1406 -0.0216975 -0.0059504)
(14.1285 -0.0207892 -0.00584281)
(14.1169 -0.0201585 -0.00577996)
(14.1074 -0.0206691 -0.00573184)
(14.0935 -0.0222299 -0.00583602)
(13.9984 0.000579875 0.000932556)
(14.009 0.0155457 0.0113568)
(14.0438 0.0320474 0.0221796)
(14.1007 0.0470194 0.0312151)
(14.1732 0.0579812 0.0375487)
(14.2526 0.0631897 0.0407203)
(14.3291 0.0622295 0.0408099)
(14.3945 0.0561294 0.0383605)
(14.4442 0.0467411 0.0341652)
(14.4768 0.0359296 0.0290128)
(14.4935 0.0251766 0.0235545)
(14.4968 0.0154592 0.0182649)
(14.4896 0.00727691 0.0134437)
(14.4749 0.00077094 0.00924543)
(14.4552 -0.00414149 0.00571973)
(14.4324 -0.00766522 0.00284791)
(14.4082 -0.0100498 0.000571381)
(14.3837 -0.0115415 -0.0011876)
(14.3595 -0.0123598 -0.00251239)
(14.3362 -0.0126882 -0.00348387)
(14.314 -0.0126737 -0.00417562)
(14.2932 -0.0124308 -0.00465223)
(14.2737 -0.0120457 -0.00496825)
(14.2556 -0.0115845 -0.00517007)
(14.2387 -0.0111006 -0.00529448)
(14.2228 -0.0106307 -0.00537593)
(14.2082 -0.0102691 -0.00543201)
(14.1933 -0.00998763 -0.00550848)
(14.182 -0.0101955 -0.00554465)
(14.1588 -0.0116983 -0.005758)
(13.9144 0.0599856 0.303537)
(13.5037 0.203289 1.02951)
(12.6341 0.222267 2.04929)
(10.7501 0.267147 4.53647)
(1.32148 -0.0267164 -0.786472)
(8.26114 -0.158 -2.70995)
(9.20284 -0.100472 -1.7454)
(9.97797 -0.0698389 -1.20341)
(10.6446 -0.0503033 -0.86337)
(11.2043 -0.0368948 -0.632695)
(11.6653 -0.0274719 -0.471175)
(12.0405 -0.0207645 -0.356298)
(12.3438 -0.0158966 -0.272943)
(12.588 -0.0122445 -0.210597)
(12.8272 -0.0178962 -0.16458)
(13.0415 -0.0261554 -0.133257)
(13.1501 -0.0214826 -0.109182)
(13.2397 -0.0177577 -0.0902516)
(13.3155 -0.0148242 -0.0753248)
(13.3801 -0.0124997 -0.0635062)
(13.4355 -0.0106319 -0.0540197)