/*--------------------------------*- C++ -*----------------------------------*\
  =========                 |
  \\      /  F ield         | OpenFOAM: The Open Source CFD Toolbox
   \\    /   O peration     | Website:  https://openfoam.org
    \\  /    A nd           | Version:  7
     \\/     M anipulation  |
\*---------------------------------------------------------------------------*/
FoamFile
{
    version     2.0;
    format      ascii;
    class       volScalarField;
    location    "100";
    object      k;
}
// * * * * * * * * * * * * * * * * * * * * * * * * * * * * * * * * * * * * * //

dimensions      [0 2 -2 0 0 0 0];

internalField   nonuniform List<scalar> 
27370
(
348.948
348.711
350.054
309.647
17.1943
34.4533
52.8926
82.826
143.962
200.706
231.697
244.303
243.932
228.347
204.851
189.333
176.085
164.627
154.592
145.708
137.783
130.707
124.484
119.324
115.893
348.688
347.416
348.335
324.548
21.2966
48.4411
70.2322
97.8499
150.088
200.841
230.032
242.226
241.877
225.963
202.177
187.139
174.278
163.121
153.316
144.608
136.818
129.848
123.704
118.598
115.195
348.212
345.461
344.807
335.397
3.07819
61.633
88.8921
103.929
122.349
158.41
197.974
223.599
235.118
235.093
219.674
196.616
182.642
170.586
160.035
150.69
142.332
134.814
128.054
122.07
117.075
113.726
347.641
343.232
338.322
332.3
298.752
21.0244
121.745
132.486
134.958
136.441
143.46
163.736
190.97
211.829
222.384
223.027
209.219
188.286
175.99
165.143
155.479
146.795
138.943
131.817
125.362
119.61
114.775
111.507
347.068
341.134
334.448
328.252
311.892
280.039
233.166
212.533
194.847
180.631
169.453
161.491
159.145
165.551
179.343
192.798
200.74
201.479
194.561
177.608
167.509
158.183
149.615
141.749
134.523
127.884
121.813
116.354
111.724
108.557
346.557
339.358
331.243
320.691
306.134
290.273
265.449
239.608
219.732
202.316
187.492
175.534
167.523
165.156
167.641
172.806
176.477
176.371
172.515
165.493
157.746
150.047
142.667
135.7
129.173
123.088
117.457
112.341
107.95
104.9
346.124
337.886
328.652
317.546
303.68
286.471
267.195
247.121
228.134
210.735
195.207
181.842
171.236
164.315
161.27
161.213
161.734
161.038
158.31
153.335
147.403
141.141
134.888
128.814
123.005
117.504
112.348
107.607
103.48
100.559
345.764
336.622
326.395
314.583
300.734
284.695
267.081
248.779
230.84
213.896
198.323
184.414
172.55
163.251
156.82
153.007
150.692
148.576
145.728
141.736
136.971
131.805
126.506
121.244
116.121
111.199
106.529
102.181
98.3374
95.5482
345.459
335.446
324.179
311.451
297.139
281.306
264.379
246.963
229.757
213.283
197.895
183.855
171.42
160.901
152.542
146.33
141.788
138.148
134.668
130.865
126.687
122.245
117.676
113.098
108.592
104.219
100.026
96.078
92.5277
89.8708
345.191
334.214
321.668
307.68
292.449
276.216
259.347
242.288
225.518
209.429
194.306
180.36
167.761
156.696
147.333
139.72
133.668
128.77
124.528
120.519
116.529
112.499
108.445
104.41
100.437
96.5653
92.8306
89.2808
86.0329
83.5044
344.945
332.716
318.376
302.576
285.913
268.802
251.577
234.553
218.037
202.289
187.502
173.822
161.345
150.177
140.421
132.117
125.194
119.447
114.571
110.25
106.25
102.431
98.7258
95.1134
91.594
88.1769
84.878
81.7239
78.7913
76.3864
344.703
330.555
313.406
294.914
276.206
257.821
240.002
222.887
206.604
191.267
176.962
163.75
151.669
140.763
131.075
122.622
115.37
109.211
103.97
99.4309
95.3958
91.7101
88.2681
85.0051
81.8853
78.8897
76.013
73.2582
70.6679
68.3838
344.434
326.757
304.752
282.209
260.798
240.928
222.549
205.501
189.686
175.033
161.512
149.095
137.765
127.512
118.33
110.209
103.12
97.0008
91.7455
87.2166
83.2673
79.7625
76.591
73.6697
70.9417
68.3659
65.9202
63.5827
61.3899
59.2277
343.977
318.198
287.104
258.754
234.364
213.422
195.123
178.85
164.199
150.887
138.766
127.729
117.703
108.639
100.499
93.2534
86.8678
81.2955
76.4707
72.3067
68.7038
65.5602
62.7806
60.2843
58.0074
55.8979
53.9291
52.0445
50.3491
48.3304
341.91
291.587
243.969
209.575
184.11
164.467
148.459
134.903
123.09
112.584
103.156
94.6352
86.9272
79.9773
73.7431
68.1871
63.2728
58.9612
55.2077
51.9593
49.1553
46.7313
44.621
42.7644
41.1083
39.6007
38.237
36.883
35.8564
34.1481
317.06
174.862
118.147
91.1369
75.6217
65.5016
58.0989
52.2344
47.3334
43.0875
39.3343
35.9954
33.0047
30.3161
27.9027
25.7454
23.8274
22.1332
20.6468
19.3509
18.2273
17.2542
16.4142
15.6773
15.0438
14.4525
13.9744
13.4375
13.0826
12.4388
348.688
347.419
348.344
324.446
20.6117
47.9881
70.0025
97.7435
150.056
200.834
230.03
242.225
241.876
225.962
202.176
187.138
174.278
163.12
153.315
144.607
136.818
129.847
123.703
118.598
115.194
348.446
346.366
346.747
330.715
32.8756
64.5723
85.0972
109.557
155
200.84
228.392
240.185
239.852
223.619
199.557
184.984
172.5
161.634
152.053
143.516
135.86
128.992
122.926
117.875
114.498
348.007
344.664
343.55
333.593
104.421
19.1463
83.339
102.965
114.052
129.68
161.682
197.857
222.082
233.197
233.167
217.44
194.123
180.577
168.872
158.595
149.459
141.265
133.874
127.213
121.303
116.36
113.038
347.481
342.64
337.211
331.682
306.493
93.3605
60.9277
141.562
144.094
142.868
142.273
147.717
165.813
190.863
210.55
220.68
221.277
207.162
185.991
174.064
163.527
154.107
145.614
137.912
130.903
124.54
118.859
114.074
110.831
346.952
340.734
333.769
327.624
312.117
283.656
244.202
220.983
201.291
185.779
173.593
164.827
161.615
166.775
179.066
191.466
198.921
199.57
192.762
175.56
165.764
156.694
148.334
140.633
133.539
127.006
121.019
115.626
111.041
107.898
346.476
339.09
330.791
320.18
305.893
290.811
267.151
241.958
222.204
204.698
189.669
177.429
168.976
165.798
167.422
171.584
174.713
174.446
170.607
163.759
156.22
148.713
141.495
134.664
128.248
122.254
116.698
111.64
107.291
104.263
346.068
337.705
328.352
317.194
303.423
286.547
267.702
248.023
229.245
211.917
196.363
182.896
172.09
164.788
161.223
160.531
160.607
159.677
156.833
151.929
146.113
139.977
133.839
127.868
122.148
116.722
111.629
106.939
102.85
99.947
345.725
336.498
326.189
314.333
300.516
284.619
267.209
249.12
231.336
214.477
198.93
184.993
173.038
163.552
156.833
152.65
149.996
147.64
144.655
140.642
135.915
130.814
125.588
120.396
115.339
110.476
105.856
101.551
97.7397
94.9669
345.432
335.359
324.031
311.263
296.953
281.181
264.353
247.055
229.948
213.541
198.186
184.147
171.675
161.064
152.551
146.127
141.357
137.522
133.905
130.037
125.846
121.422
116.889
112.352
107.89
103.559
99.4056
95.4918
91.968
89.3245
345.173
334.152
321.558
307.532
292.287
276.074
259.252
242.257
225.547
209.506
194.413
180.477
167.867
156.759
147.315
139.582
133.387
128.349
123.991
119.904
115.874
111.832
107.785
103.768
99.8193
95.9748
92.2676
88.7433
85.5161
82.998
344.932
332.67
318.292
302.455
285.768
268.655
251.449
234.457
217.977
202.262
187.5
173.834
161.357
150.172
140.375
132.006
124.998
119.156
114.191
109.799
105.75
101.902
98.1854
94.5735
91.0628
87.6595
84.3773
81.2404
78.323
75.9253
344.694
330.522
313.34
294.812
276.076
257.676
239.858
222.757
206.495
191.181
176.896
163.699
151.625
140.716
131.011
122.525
115.224
109.006
103.702
99.1055
95.0234
91.3033
87.8393
84.5648
81.442
78.4493
75.5798
72.8345
70.2541
67.9741
344.429
326.733
304.699
282.122
260.679
240.787
222.4
205.356
189.553
174.917
161.413
149.012
137.694
127.445
118.26
110.125
103.012
96.8576
91.5614
86.9903
83.0016
79.4634
76.2661
73.3269
70.588
68.007
65.5607
63.2258
61.0381
58.8766
343.974
318.182
287.062
258.678
234.255
213.288
194.976
178.703
164.06
150.763
138.658
127.639
117.627
108.573
100.438
93.1898
86.7941
81.2041
76.3551
72.1628
68.5303
65.3584
62.5539
60.0373
57.7451
55.625
53.65
51.7623
50.0679
48.0478
341.909
291.577
243.935
209.51
184.015
164.349
148.328
134.772
122.967
112.475
103.063
94.5608
86.8694
79.9329
73.7077
68.1556
63.2396
58.9208
55.1549
51.8899
49.0665
46.6221
44.4918
42.617
40.9454
39.4253
38.0528
36.6919
35.6632
33.9524
317.06
174.856
118.127
91.103
75.574
65.4447
58.0374
52.1736
47.2775
43.039
39.2947
35.9636
32.9806
30.2987
27.8906
25.7366
23.8202
22.1254
20.6365
19.3363
18.207
17.2271
16.38
15.6357
14.9957
14.398
13.9156
13.3736
13.0182
12.3712
348.214
345.467
344.824
335.455
3.97123
61.4451
88.5601
103.69
122.2
158.345
197.953
223.591
235.114
235.091
219.672
196.614
182.64
170.584
160.034
150.688
142.331
134.813
128.053
122.069
117.074
113.725
348.008
344.668
343.559
333.588
95.1537
17.3333
83.194
102.803
113.929
129.598
161.644
197.844
222.077
233.195
233.166
217.439
194.122
180.576
168.871
158.594
149.458
141.264
133.873
127.212
121.303
116.36
113.037
347.644
343.281
341.04
333.017
292.383
111.952
126.543
130.883
133.891
142.991
166.039
194.977
216.216
226.593
226.789
211.542
188.959
176.357
165.376
155.649
146.933
139.062
131.924
125.46
119.702
114.864
111.595
347.196
341.609
335.338
329.709
311.11
263.395
198.493
184.175
175.804
166.419
158.836
154.137
155.807
168.584
188.539
205.547
214.803
215.476
201.757
181.237
170.131
160.232
151.302
143.19
135.784
129.009
122.831
117.293
112.607
109.414
346.743
340.016
332.468
322.342
311.777
288.602
259.61
233.555
212.351
195.158
181.378
171.118
166.026
168.416
177.441
187.541
193.951
194.478
188.121
171.36
162.211
153.663
145.715
138.342
131.509
125.186
119.367
114.105
109.614
106.517
346.327
338.601
329.958
319.285
305.223
287.114
266.476
245.578
226.074
208.529
193.226
180.517
171.25
166.595
166.593
168.915
171.013
170.438
166.675
160.231
153.121
145.995
139.1
132.535
126.338
120.526
115.117
110.178
105.912
102.927
345.964
337.37
327.793
316.539
302.886
286.547
268.316
249.396
231.01
213.84
198.267
184.632
173.453
165.447
160.907
159.062
158.289
156.848
153.824
149.08
143.496
137.604
131.694
125.924
120.377
115.1
110.133
105.545
101.531
98.6663
345.653
336.264
325.797
313.849
300.071
284.4
267.32
249.608
232.102
215.403
199.91
185.927
173.803
163.968
156.709
151.838
148.544
145.717
142.475
138.423
133.77
128.793
123.706
118.652
113.723
108.975
104.457
100.238
96.4907
93.7505
345.381
335.192
323.745
310.892
296.572
280.891
264.228
247.132
230.199
213.914
198.623
184.586
172.043
161.259
152.456
145.633
140.434
136.224
132.345
128.35
124.13
119.74
115.272
110.816
106.44
102.192
98.1153
94.2697
90.7989
88.1822
345.138
334.03
321.342
307.235
291.951
275.761
259.013
242.124
225.52
209.564
194.526
180.61
167.976
156.787
147.191
139.232
132.766
127.458
122.876
118.639
114.529
110.461
106.425
102.442
98.5412
94.7496
91.0965
87.6232
84.4376
81.94
344.908
332.581
318.123
302.209
285.468
268.338
251.155
234.213
217.795
202.137
187.419
173.778
161.302
150.084
140.212
131.719
124.549
118.527
113.391
108.861
104.714
100.81
97.0686
93.4564
89.9619
86.5854
83.3358
80.2332
77.3462
74.9627
344.678
330.456
313.206
294.604
275.803
257.364
239.538
222.455
206.228
190.952
176.703
163.533
151.473
140.559
130.822
122.273
114.881
108.55
103.126
98.4185
94.2445
90.4569
86.9489
83.6513
80.5217
77.5343
74.6787
71.9523
69.3916
67.1193
344.419
326.685
304.593
281.943
260.43
240.488
222.075
205.031
189.246
174.637
161.165
148.792
137.496
127.258
118.067
109.908
102.748
96.5288
91.1552
86.5031
82.4384
78.8353
75.5874
72.613
69.8522
67.2604
64.8128
62.483
60.3056
58.1449
343.969
318.15
286.977
258.524
234.03
213.008
194.664
178.383
163.751
150.476
138.403
127.414
117.43
108.396
100.271
93.0201
86.6066
80.9839
76.0896
71.8437
68.1547
64.9285
62.0758
59.5196
57.1973
55.0561
53.0687
51.1748
49.4827
47.4595
341.907
291.557
243.867
209.381
183.823
164.108
148.058
134.496
122.702
112.232
102.849
94.3795
86.7191
79.8085
73.6015
68.0582
63.1405
58.8094
55.021
51.7253
48.8657
46.3826
44.2142
42.3044
40.6029
39.0585
37.6687
36.294
35.2615
33.5458
317.06
174.847
118.092
91.0403
75.484
65.3348
57.916
52.0508
47.1612
42.9347
39.2056
35.8886
32.9198
30.2506
27.8526
25.7056
23.7925
22.0973
20.6042
19.2963
18.1565
17.1641
16.3035
15.5453
14.8928
14.2829
13.7922
13.2405
12.8833
12.2309
347.642
343.24
338.342
332.334
298.41
20.6956
121.419
132.25
134.754
136.274
143.333
163.66
190.937
211.815
222.376
223.022
209.215
188.282
175.986
165.14
155.476
146.792
138.941
131.815
125.36
119.608
114.773
111.505
347.482
342.645
337.225
331.707
306.427
93.7622
60.0217
141.254
143.912
142.723
142.155
147.625
165.756
190.837
210.537
220.674
221.272
207.158
185.987
174.061
163.524
154.104
145.612
137.91
130.901
124.539
118.858
114.073
110.83
347.197
341.611
335.344
329.72
311.111
263.153
198.431
184.059
175.719
166.354
158.781
154.09
155.769
168.557
188.525
205.54
214.799
215.473
201.754
181.235
170.129
160.23
151.301
143.188
135.782
129.008
122.83
117.292
112.606
109.413
346.845
340.371
333.113
323.155
312.086
286.636
252.978
224.758
204.258
188.148
175.674
166.951
164.102
170.188
183.42
196.531
204.423
205.295
192.892
174.164
164.344
155.388
147.167
139.598
132.616
126.177
120.266
114.934
110.394
107.274
346.48
339.128
330.908
320.538
306.238
291.328
267.7
244.064
223.009
204.968
189.913
178.087
170.69
169.507
174.134
180.96
185.779
186.135
180.678
165.185
157.008
149.215
141.858
134.95
128.489
122.466
116.889
111.818
107.46
104.432
346.136
337.974
328.889
318.022
304.361
287.457
268.404
248.771
229.911
212.545
197.061
183.845
173.584
167.174
164.81
165.025
165.595
164.552
160.919
155.092
148.601
142.016
135.573
129.383
123.497
117.942
112.747
107.977
103.834
100.911
345.827
336.926
327.044
315.623
302.102
286.302
268.823
250.657
232.777
215.855
200.313
186.497
174.861
165.975
160.142
156.862
154.888
152.763
149.512
144.958
139.689
134.131
128.535
123.045
117.743
112.677
107.889
103.449
99.5432
96.7331
345.555
335.944
325.253
313.155
299.391
283.951
267.25
249.958
232.79
216.305
200.896
186.869
174.536
164.258
156.3
150.548
146.395
142.926
139.33
135.209
130.645
125.831
120.932
116.068
111.316
106.732
102.359
98.2633
94.6083
91.9147
345.312
334.957
323.335
310.342
295.975
280.373
263.889
247.021
230.299
214.169
198.963
184.934
172.305
161.304
152.125
144.786
139.018
134.303
130.066
125.886
121.618
117.265
112.884
108.537
104.277
100.146
96.1794
92.4317
89.0372
86.4585
345.088
333.854
321.022
306.783
291.418
275.224
258.544
241.769
225.288
209.438
194.471
180.583
167.923
156.632
146.839
138.588
131.767
126.099
121.214
116.768
112.542
108.433
104.409
100.47
96.6327
92.9149
89.3383
85.9378
82.8121
80.3436
344.873
332.448
317.868
301.827
284.985
267.804
250.623
233.727
217.375
201.786
187.124
173.517
161.046
149.79
139.822
131.171
123.789
117.529
112.165
107.446
103.165
99.1795
95.4019
91.787
88.3137
84.9741
81.7705
78.7169
75.8737
73.51
344.654
330.356
313
294.276
275.362
256.845
238.983
221.904
205.707
190.475
176.271
163.138
151.099
140.182
130.409
121.783
114.273
107.796
102.214
97.3576
93.0591
89.1783
85.6091
82.2784
79.1385
76.1583
73.3224
70.6229
68.091
65.8291
344.404
326.613
304.427
281.659
260.03
239.993
221.524
204.461
188.687
174.108
160.674
148.34
137.076
126.857
117.664
109.476
102.261
95.9592
90.4856
85.7273
81.5616
77.8712
74.555
71.5319
68.7404
66.1338
63.6845
61.3622
59.2001
57.0402
343.961
318.101
286.845
258.281
233.672
212.554
194.146
177.839
163.209
149.959
137.922
126.974
117.03
108.027
99.9212
92.672
86.2402
80.5788
75.6282
71.3139
67.5515
64.2537
61.3368
58.7273
56.3639
54.1939
52.1897
50.2871
48.5992
46.5713
341.904
291.527
243.765
209.184
183.527
163.73
147.626
134.042
122.253
111.808
102.459
94.0329
86.4155
79.5425
73.3639
67.837
62.9218
58.5787
54.7645
51.4312
48.5258
45.9928
43.7745
41.8184
40.0768
38.4992
37.0861
35.6921
34.6551
32.9322
317.059
174.834
118.042
90.9493
75.3512
65.1696
57.7296
51.8573
46.9721
42.7588
39.0484
35.7501
32.8005
30.1491
27.7661
25.6301
23.7232
22.0292
20.5322
19.2156
18.0631
17.0549
16.177
15.4007
14.7318
14.1054
13.6039
13.0379
12.6811
12.0184
347.07
341.14
334.462
328.276
311.91
279.899
232.644
212.267
194.676
180.496
169.337
161.388
159.057
165.484
179.301
192.774
200.725
201.469
194.553
177.601
167.502
158.177
149.61
141.744
134.519
127.881
121.809
116.351
111.721
108.554
346.953
340.739
333.78
327.644
312.142
284.37
243.896
220.614
201.155
185.675
173.503
164.747
161.544
166.719
179.031
191.446
198.908
199.56
192.755
175.553
165.758
156.689
148.329
140.629
133.535
127.003
121.016
115.623
111.039
107.896
346.744
340.019
332.474
322.353
311.793
288.572
259.549
233.496
212.296
195.106
181.329
171.072
165.984
168.381
177.417
187.526
193.941
194.471
188.115
171.355
162.207
153.659
145.712
138.339
131.506
125.184
119.365
114.103
109.612
106.515
346.48
339.129
330.91
320.542
306.242
291.326
267.689
244.05
222.994
204.951
189.895
178.069
170.673
169.493
174.123
180.952
185.774
186.131
180.675
165.182
157.006
149.213
141.856
134.948
128.487
122.465
116.888
111.816
107.459
104.431
346.199
338.195
329.289
318.569
304.975
292.174
271.975
250.88
230.884
212.843
197.1
183.992
174.34
169.375
169.308
172.143
174.776
174.766
170.772
157.417
150.437
143.555
136.906
130.561
124.553
118.901
113.625
108.793
104.606
101.663
345.926
337.285
327.71
316.559
303.147
287.155
269.399
250.93
232.819
215.779
200.248
186.604
175.381
167.237
162.448
160.254
159.073
157.26
153.754
148.674
142.909
136.957
131.049
125.306
119.796
114.557
109.625
105.069
101.081
98.234
345.672
336.414
326.169
314.505
301.029
285.647
268.833
251.352
233.995
217.375
201.915
187.953
175.865
166.092
158.913
154.08
150.738
147.752
144.209
139.827
134.896
129.714
124.479
119.319
114.31
109.501
104.936
100.68
96.9098
94.1673
345.441
335.56
324.586
312.266
298.444
283.163
266.787
249.881
233.049
216.796
201.496
187.441
174.903
164.174
155.48
148.785
143.674
139.452
135.423
131.185
126.696
122.053
117.364
112.717
108.178
103.791
99.5963
95.6536
92.1149
89.4786
345.229
334.665
322.809
309.609
295.125
279.54
263.191
246.523
230.003
214.034
198.926
184.918
172.206
160.982
151.408
143.516
137.123
131.833
127.172
122.76
118.415
114.09
109.799
105.574
101.452
97.4597
93.6282
90.0021
86.7033
84.171
345.027
333.628
320.597
306.159
290.645
274.386
257.728
241.037
224.667
208.921
194.032
180.182
167.503
156.111
146.113
137.55
130.342
124.273
119.04
114.345
109.974
105.806
101.787
97.8954
94.1318
90.5019
87.0186
83.7087
80.658
78.2246
344.828
332.272
317.519
301.287
284.275
266.98
249.753
232.869
216.567
201.04
186.439
172.874
160.416
149.127
139.065
130.249
122.641
116.12
110.5
105.565
101.125
97.0405
93.2159
89.5947
86.1449
82.8491
79.7017
76.7091
73.9211
71.5809
344.623
330.221
312.712
293.803
274.71
256.05
238.102
220.991
204.805
189.609
175.451
162.362
150.355
139.445
129.642
120.941
113.311
106.678
100.924
95.9013
91.4613
87.4727
83.8311
80.4606
77.3081
74.3367
71.5251
68.8596
66.3645
64.1147
344.383
326.512
304.19
281.248
259.436
239.245
220.668
203.551
187.766
173.207
159.811
147.524
136.303
126.114
116.93
108.723
101.456
95.0721
89.4942
84.6217
80.3451
76.5576
73.164
70.0847
67.2579
64.6345
62.1842
59.8721
57.7305
55.5712
343.949
318.031
286.657
257.93
233.148
211.878
193.361
176.994
162.345
149.111
137.111
126.211
116.316
107.358
99.284
92.0479
85.6065
79.912
74.907
70.5229
66.683
63.3079
60.3205
57.6514
55.2417
53.039
51.0161
49.104
47.4233
45.3893
341.901
291.486
243.625
208.91
183.109
163.188
146.993
133.361
121.559
111.131
101.819
93.4411
85.8762
79.0525
72.9143
67.4149
62.5119
58.1639
54.3285
50.9598
48.0083
45.4232
43.1515
41.1447
39.3587
37.7437
36.3045
34.8872
33.8496
32.1134
317.059
174.817
117.979
90.8307
75.1744
64.9444
57.4693
51.5796
46.6923
42.4893
38.7975
35.5204
32.5934
29.9643
27.6011
25.4807
23.5843
21.895
20.3967
19.0732
17.9088
16.8849
15.9892
15.1935
14.5069
13.8618
13.3505
12.7564
12.459
11.695
346.558
339.363
331.253
320.707
306.146
290.253
265.385
239.549
219.667
202.251
187.428
175.471
167.463
165.105
167.599
172.776
176.455
176.353
172.502
165.482
157.736
150.039
142.66
135.693
129.167
123.083
117.452
112.337
107.945
104.896
346.477
339.094
330.799
320.193
305.906
290.807
267.097
241.918
222.155
204.646
189.617
177.377
168.927
165.754
167.385
171.557
174.694
174.431
170.595
163.749
156.211
148.705
141.489
134.658
128.242
122.249
116.693
111.636
107.287
104.259
346.328
338.604
329.963
319.293
305.231
287.11
266.46
245.555
226.045
208.496
193.191
180.482
171.215
166.564
166.566
168.895
170.997
170.426
166.665
160.223
153.114
145.989
139.094
132.53
126.334
120.522
115.113
110.174
105.909
102.924
346.136
337.976
328.892
318.026
304.365
287.456
268.397
248.759
229.897
212.528
197.042
183.826
173.564
167.155
164.793
165.011
165.584
164.543
160.912
155.085
148.596
142.012
135.569
129.379
123.494
117.939
112.744
107.975
103.832
100.909
345.926
337.285
327.711
316.56
303.148
287.154
269.396
250.926
232.814
215.773
200.24
186.597
175.373
167.229
162.441
160.248
159.068
157.255
153.75
148.671
142.907
136.955
131.046
125.304
119.794
114.556
109.624
105.068
101.079
98.2328
345.714
336.577
326.481
314.96
301.574
286.188
269.319
251.759
234.328
217.66
202.19
188.265
176.289
166.737
159.886
155.425
152.392
149.567
146.001
141.478
136.382
131.051
125.689
120.42
115.319
110.431
105.799
101.488
97.679
94.9197
345.511
335.864
325.2
313.202
299.631
284.481
268.133
251.185
234.284
217.964
202.624
188.576
176.124
165.598
157.239
150.965
146.257
142.306
138.354
134.027
129.371
124.539
119.665
114.848
110.154
105.629
101.314
97.2699
93.6574
90.9912
345.319
335.128
323.804
311.173
297.178
281.927
265.751
249.132
232.582
216.546
201.366
187.31
174.609
163.491
154.139
146.568
140.523
135.514
130.991
126.565
122.1
117.599
113.11
108.687
104.372
100.201
96.2069
92.4396
89.0353
86.4633
345.135
334.321
322.164
308.666
293.964
278.289
261.977
245.434
229.071
213.246
198.238
184.263
171.494
160.08
150.151
141.748
134.752
128.884
123.773
119.09
114.633
110.311
106.098
101.995
98.016
94.1764
90.4954
87.0084
83.8201
81.3393
344.956
333.352
320.055
305.33
289.567
273.145
256.425
239.754
223.452
207.791
192.979
179.175
166.494
155.024
144.85
136.003
128.428
121.965
116.379
111.417
106.881
102.638
98.6133
94.7661
91.0786
87.5441
84.1653
80.9589
77.9953
75.6004
344.775
332.049
317.058
300.547
283.269
265.767
248.414
231.482
215.189
199.707
185.162
171.648
159.218
147.916
137.781
128.824
121.009
114.242
108.37
103.216
98.6098
94.4171
90.5385
86.9077
83.482
80.2342
77.1502
74.2279
71.5047
69.1902
344.584
330.043
312.32
293.143
273.776
254.883
236.771
219.571
203.358
188.179
174.063
161.024
149.063
138.179
128.368
119.615
111.885
105.112
99.1974
94.0151
89.4347
85.3365
81.6203
78.2083
75.0434
72.083
69.3004
66.6752
64.2244
61.9879
344.357
326.376
303.863
280.666
258.583
238.151
219.395
202.168
186.336
171.78
158.418
146.182
135.018
124.878
115.725
107.52
100.221
93.7738
88.1066
83.1311
78.7511
74.8707
71.4011
68.2662
65.4049
62.7663
60.3178
58.0199
55.9047
53.7464
343.935
317.937
286.395
257.437
232.402
210.905
192.213
175.736
161.036
147.801
135.834
124.986
115.154
106.258
98.2343
91.0314
84.6002
78.8908
73.8476
69.4069
65.4998
62.0548
59.0014
56.2755
53.8215
51.5875
49.5477
47.6281
45.9578
43.9199
341.895
291.432
243.435
208.537
182.533
162.429
146.094
132.375
120.535
110.111
100.829
92.5035
85.0002
78.2387
72.1561
66.7004
61.8254
57.4879
53.645
50.2527
47.265
44.6355
42.3161
40.2625
38.4345
36.7835
35.3194
33.8806
32.8371
31.1003
317.058
174.798
117.9
90.6812
74.9463
64.6469
57.1177
51.195
46.2943
42.0951
38.4192
35.1637
32.2621
29.6595
27.3214
25.2225
23.3427
21.6639
20.1698
18.8442
17.6723
16.6361
15.7255
14.9125
14.2098
13.5473
13.0225
12.4257
12.0635
11.3853
346.125
337.889
328.659
317.555
303.687
286.465
267.175
247.089
228.094
210.691
195.161
181.795
171.189
164.271
161.23
161.18
161.708
161.016
158.292
153.32
147.39
141.13
134.878
128.805
122.997
117.497
112.341
107.601
103.475
100.553
346.069
337.708
328.357
317.202
303.429
286.543
267.686
247.997
229.213
211.88
196.323
182.855
172.049
164.749
161.188
160.501
160.582
159.657
156.816
151.915
146.101
139.966
133.83
127.86
122.14
116.715
111.623
106.933
102.844
99.942
345.965
337.372
327.797
316.545
302.89
286.544
268.305
249.378
230.987
213.813
198.238
184.601
173.422
165.417
160.879
159.038
158.268
156.831
153.81
149.068
143.486
137.594
131.686
125.917
120.371
115.094
110.127
105.54
101.526
98.6619
345.828
336.927
327.047
315.627
302.104
286.3
268.817
250.647
232.763
215.838
200.294
186.477
174.84
165.955
160.123
156.845
154.873
152.751
149.501
144.948
139.68
134.124
128.529
123.039
117.738
112.672
107.885
103.445
99.5394
96.7295
345.673
336.415
326.17
314.506
301.03
285.646
268.83
251.346
233.988
217.365
201.905
187.942
175.853
166.08
158.901
154.069
150.729
147.743
144.202
139.82
134.89
129.708
124.475
119.315
114.306
109.498
104.933
100.677
96.9072
94.1648
345.511
335.864
325.2
313.202
299.631
284.481
268.132
251.182
234.281
217.96
202.62
188.571
176.119
165.593
157.234
150.96
146.252
142.302
138.35
134.024
129.369
124.536
119.663
114.845
110.152
105.627
101.312
97.2684
93.656
90.9899
345.35
335.28
324.126
311.678
297.838
282.691
266.569
249.962
233.399
217.34
202.138
188.071
175.382
164.314
155.055
147.613
141.702
136.796
132.316
127.875
123.359
118.79
114.228
109.732
105.35
101.117
97.0666
93.2514
89.8116
87.2261
345.192
334.647
322.89
309.827
295.508
280.113
263.97
247.5
231.143
215.283
200.224
186.199
173.402
162.001
152.139
143.852
136.998
131.254
126.212
121.527
117.013
112.599
108.276
104.056
99.9622
96.0121
92.2285
88.6508
85.3938
82.889
345.035
333.92
321.374
307.457
292.394
276.482
260.075
243.55
227.271
211.553
196.639
182.717
169.93
158.389
148.19
139.372
131.865
125.476
119.932
114.959
110.359
106.011
101.853
97.8589
94.0197
90.3351
86.8129
83.476
80.4094
77.9818
344.876
333.016
319.362
304.23
288.081
271.363
254.462
237.719
221.426
205.818
191.076
177.332
164.677
153.172
142.876
133.811
125.935
119.132
113.223
108.005
103.299
98.9717
94.931
91.1209
87.5077
84.0711
80.8031
77.7093
74.8424
72.4869
344.712
331.768
316.448
299.539
281.862
264.025
246.437
229.374
213.037
197.57
183.076
169.623
157.244
145.963
135.8
126.75
118.78
111.812
105.725
100.375
95.614
91.3175
87.3854
83.7449
80.3445
77.148
74.1331
71.2888
68.639
66.3507
344.536
329.811
311.786
292.223
272.452
253.205
234.827
217.46
201.171
185.984
171.904
158.926
147.032
136.204
126.421
117.656
109.869
102.998
96.9591
91.6457
86.9456
82.7516
78.9692
75.5216
72.3491
69.4047
66.6568
64.0786
61.6805
59.4576
344.323
326.194
303.407
279.842
257.365
236.578
217.546
200.14
184.215
169.639
156.307
144.133
133.045
122.981
113.89
105.723
98.4298
91.9557
86.2336
81.1854
76.7269
72.7724
69.2408
66.0609
63.1731
60.526
58.0857
55.8077
53.7271
51.5709
343.915
317.808
286.026
256.736
231.34
209.514
190.563
173.915
159.123
145.866
133.926
123.14
113.388
104.576
96.6316
89.4922
83.1028
77.4101
72.3589
67.8898
63.9401
60.4458
57.3432
54.5736
52.0854
49.8279
47.7781
45.8557
44.2042
42.1636
341.888
291.357
243.174
208.019
181.732
161.369
144.829
130.975
119.063
108.624
99.3686
91.099
83.6691
76.9869
70.9804
65.591
60.7676
56.464
52.6368
49.2428
46.239
43.583
41.2309
39.1429
37.283
35.6033
34.1212
32.6634
31.6237
29.8834
317.058
174.775
117.803
90.4896
74.6482
64.2514
56.6431
50.6674
45.7386
41.5341
37.8699
34.6361
31.763
29.1921
26.8858
24.8162
22.9612
21.3014
19.82
18.5006
17.3289
16.2876
15.3684
14.5434
13.8295
13.1528
12.6198
12.01
11.6461
10.9634
345.764
336.624
326.399
314.588
300.737
284.69
267.068
248.757
230.812
213.863
198.287
184.375
172.512
163.213
156.784
152.974
150.663
148.551
145.707
141.718
136.955
131.791
126.494
121.233
116.111
111.19
106.52
102.173
98.3303
95.5414
345.726
336.5
326.193
314.337
300.519
284.615
267.198
249.102
231.312
214.448
198.898
184.958
173.003
163.517
156.8
152.62
149.97
147.617
144.636
140.625
135.9
130.801
125.576
120.386
115.329
110.467
105.848
101.544
97.7329
94.9603
345.653
336.265
325.8
313.853
300.073
284.398
267.312
249.594
232.083
215.38
199.884
185.9
173.775
163.939
156.682
151.813
148.522
145.697
142.458
138.408
133.757
128.781
123.695
118.643
113.714
108.967
104.45
100.232
96.4845
93.7446
345.555
335.945
325.255
313.157
299.392
283.949
267.244
249.948
232.776
216.288
200.878
186.849
174.515
164.237
156.279
150.529
146.377
142.909
139.316
135.196
130.634
125.821
120.923
116.059
111.309
106.726
102.353
98.2577
94.6031
91.9097
345.442
335.561
324.587
312.267
298.444
283.161
266.784
249.875
233.04
216.785
201.484
187.428
174.889
164.16
155.466
148.772
143.662
139.44
135.413
131.175
126.688
122.045
117.357
112.711
108.172
103.786
99.5915
95.6492
92.1108
89.4747
345.319
335.128
323.804
311.174
297.178
281.926
265.749
249.129
232.578
216.54
201.36
187.303
174.602
163.483
154.131
146.56
140.516
135.507
130.984
126.558
122.094
117.594
113.106
108.682
104.368
100.198
96.2036
92.4366
89.0325
86.4606
345.192
334.647
322.89
309.828
295.508
280.113
263.969
247.499
231.141
215.281
200.221
186.196
173.398
161.998
152.135
143.849
136.995
131.251
126.209
121.524
117.01
112.597
108.273
104.054
99.9603
96.0103
92.2269
88.6493
85.3924
82.8876
345.061
334.099
321.785
308.124
293.285
277.54
261.237
244.762
228.494
212.759
197.815
183.858
171.041
159.482
149.283
140.484
133.008
126.65
121.123
116.148
111.524
107.138
102.933
98.888
94.9965
91.2607
87.6899
84.3092
81.2086
78.7703
344.927
333.443
320.378
305.873
290.261
273.93
257.266
240.633
224.356
208.703
193.878
180.034
167.281
155.692
145.334
136.235
128.348
121.545
115.629
110.385
105.631
101.234
97.1092
93.2066
89.497
85.9643
82.6032
79.4235
76.4869
74.1116
344.787
332.598
318.457
302.745
286.03
268.843
251.619
234.696
218.341
202.753
188.077
174.414
161.824
150.344
140.005
130.814
122.735
115.681
109.517
104.083
99.2255
94.8158
90.7569
86.9801
83.4388
80.1009
76.9478
73.9736
71.212
68.8949
344.639
331.404
315.624
298.145
279.889
261.554
243.599
226.308
209.866
194.387
179.943
166.569
154.277
143.067
132.936
123.865
115.815
108.721
102.484
96.9857
92.1036
87.7239
83.7502
80.1072
76.7374
73.5975
70.6581
67.8994
65.3325
63.0699
344.477
329.501
311.043
290.922
270.571
250.811
232.043
214.423
198.004
182.786
168.745
155.847
144.054
133.325
123.623
114.904
107.122
100.216
94.1112
88.7173
83.9378
79.6781
75.8516
72.3844
69.2164
66.2977
63.5935
61.0711
58.7364
56.5278
344.28
325.941
302.754
278.655
255.615
234.324
214.903
197.238
181.174
166.558
153.258
141.166
130.186
120.239
111.256
103.176
95.9424
89.4951
83.7703
78.6975
74.2019
70.2075
66.6416
63.4382
60.541
57.8989
55.4783
53.2297
51.1955
49.044
343.888
317.623
285.488
255.716
229.807
207.52