/*--------------------------------*- C++ -*----------------------------------*\
  =========                 |
  \\      /  F ield         | OpenFOAM: The Open Source CFD Toolbox
   \\    /   O peration     | Website:  https://openfoam.org
    \\  /    A nd           | Version:  7
     \\/     M anipulation  |
\*---------------------------------------------------------------------------*/
FoamFile
{
    version     2.0;
    format      ascii;
    class       volScalarField;
    location    "100";
    object      nut;
}
// * * * * * * * * * * * * * * * * * * * * * * * * * * * * * * * * * * * * * //

dimensions      [0 2 -1 0 0 0 0];

internalField   nonuniform List<scalar> 
27370
(
624.394
316.173
132.657
37.8216
5.38229
9.59947
15.9868
29.4582
70.6779
154.951
255.98
333.63
369.25
353.18
312.256
288.139
268.82
253.287
240.489
229.627
220.258
212.128
205.192
199.704
196.389
625.827
381.979
159.456
54.2131
4.15584
11.204
20.9279
36.7785
77.9506
159.005
255.208
329.23
363.423
346.107
304.855
282.234
264.045
249.422
237.222
226.805
217.769
209.891
203.144
197.791
194.557
627.493
513.086
231.339
87.1632
0.185647
9.05457
21.6211
34.9313
52.8913
91.2845
162.173
245.892
311.713
343.61
327.733
289.763
270.259
254.554
241.583
230.567
221.024
212.645
205.267
198.897
193.816
190.746
630.061
542.442
348.709
165.094
54.4432
0.146259
15.9117
30.6015
44.219
57.4702
74.1366
105.643
160.746
226.534
280.816
309.903
298.71
268.067
253.416
240.99
230.282
220.893
212.553
205.083
198.402
192.561
187.862
185.025
633.195
556.236
450.197
321.643
172.286
70.7526
39.6649
53.2812
63.1882
72.7689
81.5881
90.1942
101.374
121.501
155.804
198.003
235.539
258.464
261.424
242.226
233.085
224.344
216.203
208.673
201.723
195.318
189.463
184.257
180.02
177.467
635.825
568.05
480.822
375.342
272.93
182.689
135.842
135.68
130.153
127.727
126.842
127.193
129.974
138.248
153.7
174.896
195.697
210.38
216.602
215.402
211.172
205.831
200.143
194.448
188.911
183.616
178.642
174.125
170.393
168.153
637.126
574.697
499.639
415.662
333.46
266.76
220.939
191.006
174.163
162.785
154.954
149.442
146.337
146.905
152.302
162.21
173.717
183.576
189.533
190.884
189.498
186.575
182.845
178.733
174.481
170.241
166.131
162.306
159.086
157.169
636.427
574.089
504.476
432.554
364.144
305.754
260.683
227.542
204.309
187.319
174.383
164.287
156.919
152.461
151.461
153.933
158.63
163.704
167.48
169.059
168.794
167.23
164.828
161.919
158.729
155.413
152.095
148.926
146.196
144.591
632.911
564.139
493.778
427.368
367.675
316.659
275.21
242.576
217.426
197.841
182.376
169.907
159.877
152.516
147.814
145.767
145.863
147.139
148.516
149.201
148.987
147.965
146.319
144.229
141.847
139.29
136.661
134.084
131.801
130.483
625.108
541.63
465.376
400.904
347.288
302.933
266.593
237.093
213.306
194.024
178.29
165.409
154.526
145.895
139.446
135.031
132.428
131.161
130.604
130.18
129.552
128.595
127.302
125.721
123.917
121.957
119.904
117.85
115.959
114.894
609.942
501.331
416.333
353.389
305.857
268.653
238.661
214.091
193.807
176.921
162.822
150.982
140.764
132.353
125.599
120.374
116.567
113.949
112.184
110.907
109.828
108.76
107.609
106.337
104.942
103.445
101.867
100.27
98.7179
97.8659
580.256
435.324
344.254
286.652
247.453
218.649
196.022
177.529
162.076
148.891
137.703
127.913
119.514
112.352
106.329
101.392
97.4815
94.4911
92.2555
90.5698
89.2359
88.0938
87.0298
85.9748
84.8874
83.7583
82.5715
81.3812
80.1278
79.4503
518.326
334.871
250.652
205.962
178.362
159.208
144.377
132.282
122.102
113.082
105.263
98.3747
92.2861
86.9478
82.3232
78.3887
75.1195
72.4731
70.3779
68.7347
67.4315
66.3626
65.4361
64.5877
63.7626
62.9482
62.0912
61.2719
60.301
59.757
383.649
202.088
147.129
122.113
107.523
97.8071
90.0177
83.7009
78.2171
73.2673
68.8092
64.7654
61.0974
57.7976
54.8652
52.2993
50.0957
48.2425
46.7152
45.4751
44.4714
43.6511
42.957
42.3512
41.7805
41.252
40.6808
40.1898
39.5248
39.0782
151.873
75.0634
58.1086
50.4803
45.8268
42.7148
40.1367
37.8904
35.8575
33.9696
32.2209
30.5672
29.0106
27.5752
26.273
25.1096
24.0856
23.1984
22.4415
21.8043
21.2707
20.825
20.443
20.1158
19.8078
19.5415
19.2459
19.0065
18.7164
18.3961
12.4958
9.27987
7.62791
6.69949
6.10264
5.67965
5.3491
5.07197
4.82819
4.60659
4.40142
4.21048
4.03179
3.86408
3.70705
3.56077
3.4254
3.30114
3.18803
3.08593
2.99449
2.91288
2.84048
2.77534
2.71808
2.66359
2.61836
2.56855
2.52712
2.47363
625.83
381.893
159.357
54.3164
3.90975
11.011
20.8057
36.7011
77.9049
158.982
255.2
329.227
363.421
346.105
304.852
282.231
264.043
249.42
237.221
226.804
217.767
209.89
203.143
197.79
194.556
626.909
444.762
188.531
64.5668
4.98982
14.6963
26.3178
43.6483
84.6449
162.648
254.331
324.955
357.799
339.315
297.804
276.525
259.469
245.652
234.028
224.036
215.321
207.687
201.123
195.901
192.745
628.536
536.656
261.695
104.032
1.24979
0.985381
13.6524
27.0079
40.6968
59.0405
96.945
165.18
245.09
307.984
338.643
321.684
283.41
265.063
250.329
238.052
227.549
218.39
210.303
203.149
196.949
191.99
188.993
631.059
546.758
400.474
189.815
78.9409
1.32271
1.83785
22.3717
36.8717
50.0947
62.9798
79.3959
110.179
163.169
226.055
278.003
305.975
293.734
262.708
248.932
237.237
227.09
218.127
210.112
202.895
196.41
190.719
186.129
183.358
633.992
559.655
458.931
335.848
193.493
100.455
53.4182
65.2031
72.2572
80.2805
87.9681
95.6992
106.123
125.189
157.564
197.404
233.008
254.915
257.712
237.978
229.392
221.151
213.418
206.214
199.521
193.321
187.629
182.551
178.407
175.91
636.381
570.38
486.307
385.97
287.899
197.026
148.897
147.853
139.487
135.285
133.037
132.342
134.196
141.295
155.285
174.562
193.802
207.549
213.389
212.257
208.282
203.225
197.797
192.327
186.977
181.839
176.993
172.578
168.921
166.728
637.475
576.13
502.855
421.561
342.008
276.659
230.473
199.416
180.975
168.509
159.537
153.234
149.428
149.224
153.679
162.415
172.874
181.967
187.435
188.671
187.332
184.525
180.934
176.956
172.828
168.698
164.682
160.935
157.773
155.892
636.622
574.88
506.199
435.618
368.621
311.11
266.156
232.671
208.738
191.064
177.561
166.888
159.05
154.103
152.531
154.318
158.33
162.827
166.192
167.565
167.229
165.673
163.319
160.476
157.356
154.109
150.855
147.74
145.052
143.473
633.004
564.512
494.586
428.803
369.79
319.29
278.052
245.384
219.996
200.103
184.319
171.585
161.253
153.597
148.563
146.121
145.796
146.68
147.744
148.221
147.892
146.821
145.166
143.093
140.741
138.22
135.629
133.088
130.832
129.531
625.14
541.754
465.653
401.425
348.122
304.048
267.882
238.445
214.614
195.231
179.367
166.352
155.342
146.544
139.915
135.284
132.437
130.924
130.148
129.553
128.81
127.782
126.452
124.858
123.057
121.11
119.075
117.041
115.166
114.111
609.941
501.33
416.352
353.471
306.051
268.977
239.101
214.61
194.358
177.467
163.337
151.457
141.187
132.703
125.861
120.525
116.586
113.824
111.918
110.519
109.343
108.205
107.008
105.709
104.302
102.802
101.228
99.6399
98.0956
97.2479
580.244
435.277
344.181
286.573
247.399
218.644
196.076
177.642
162.231
149.073
137.9
128.108
119.701
112.516
106.458
101.47
97.4932
94.4247
92.1058
90.34
88.9357
87.7366
86.6295
85.5445
84.438
83.2987
82.1084
80.9195
79.6681
78.991
518.314
334.826
250.575
205.862
178.255
159.113
144.305
132.247
122.09
113.099
105.308
98.4318
92.3506
87.0116
82.3776
78.4241
75.1259
72.4413
70.3015
68.6113
67.2628
66.1535
65.1933
64.319
63.4753
62.6489
61.7848
60.9635
59.9917
59.446
383.643
202.063
147.083
122.049
107.446
97.7292
89.943
83.6413
78.173
73.2402
68.7987
64.7687
61.111
57.8174
54.8859
52.3155
50.1016
48.2326
46.6848
45.4212
44.3928
43.5486
42.833
42.2095
41.6247
41.0866
40.5085
40.0146
39.348
38.8997
151.872
75.057
58.0939
50.4582
45.7971
42.6816
40.103
37.86
35.8321
33.9505
32.2074
30.5618
29.0121
27.5816
26.2821
25.1188
24.0926
23.2009
22.4372
21.7917
21.2487
20.7934
20.4021
20.0667
19.7517
19.4803
19.1807
18.939
18.6479
18.3258
12.4958
9.27972
7.62728
6.69824
6.10072
5.67718
5.34626
5.06902
4.82534
4.60399
4.3992
4.20862
4.03031
3.86297
3.70624
3.56016
3.42489
3.30057
3.18726
3.08481
2.99288
2.91066
2.83759
2.77175
2.71383
2.65866
2.61296
2.56252
2.52105
2.46698
627.497
512.795
231.016
86.9273
0.202058
8.98331
21.4502
34.7567
52.743
91.1754
162.11
245.865
311.702
343.603
327.725
289.754
270.251
254.548
241.577
230.562
221.02
212.641
205.264
198.894
193.814
190.744
628.535
536.652
261.427
103.734
1.10301
0.877619
13.596
26.9089
40.5942
58.9497
96.8757
165.139
245.071
307.976
338.638
321.678
283.404
265.058
250.325
238.048
227.546
218.387
210.301
203.147
196.947
191.988
188.991
630.474
545.382
343.236
156.087
45.3569
13.0185
27.7687
41.4632
55.0438
72.8432
107.308
166.992
236.835
292.95
321.496
305.835
270.37
254.702
241.841
230.921
221.419
213.011
205.498
198.785
192.922
188.206
185.358
632.828
554.45
444.094
268.431
141.397
40.4637
18.9096
26.9551
40.7454
53.4329
65.019
76.4362
91.2951
118.683
164.887
219.927
266.282
292.131
280.627
251.72
239.904
229.678
220.63
212.498
205.121
198.399
192.301
186.909
182.537
179.899
635.369
565.501
472.782
356.298
234.017
143.258
101.564
91.6188
92.907
97.1904
102.11
107.645
115.962
132.017
159.523
193.849
225.177
245.04
248.002
229.307
221.934
214.696
207.766
201.197
195.008
189.212
183.842
179.017
175.059
172.678
637.332
574.352
495.443
403.297
312.926
239.744
194.56
170.301
157.316
149.166
144.449
141.737
141.712
146.437
157.505
173.141
189.435
201.454
206.688
205.851
202.423
197.933
193.017
187.985
183.003
178.172
173.579
169.369
165.864
163.766
638.061
578.55
508.276
431.445
356.383
292.518
245.866
214.256
193.386
178.861
167.906
160.118
154.956
153.251
155.873
162.418
170.893
178.474
183.082
184.146
182.916
180.343
177.021
173.307
169.422
165.506
161.677
158.085
155.041
153.234
636.939
576.18
509.067
440.758
376.18
320.091
275.437
241.649
216.638
197.784
183.215
171.594
162.835
156.956
154.296
154.789
157.502
160.895
163.491
164.481
164.015
162.476
160.215
157.499
154.517
151.405
148.277
145.273
142.669
141.145
633.141
565.078
495.863
431.141
373.309
323.713
282.895
250.245
224.497
204.086
187.739
174.54
163.673
155.446
149.788
146.605
145.484
145.623
146.089
146.172
145.621
144.452
142.781
140.74
138.446
135.997
133.481
131.012
128.811
127.547
625.171
541.892
466.017
402.189
349.422
305.846
270.014
240.716
216.838
197.295
181.213
167.963
156.729
147.626
140.661
135.623
132.315
130.334
129.14
128.22
127.252
126.085
124.682
123.062
121.267
119.345
117.347
115.353
113.51
112.476
609.921
501.264
416.287
353.498
306.261
269.415
239.749
215.411
195.232
178.346
164.172
152.225
141.867
133.255
126.252
120.709
116.52
113.484
111.31
109.675
108.312
107.039
105.75
104.398
102.966
101.461
99.8966
98.3257
96.7966
95.958
580.21
435.155
343.987
286.353
247.211
218.538
196.075
177.75
162.418
149.318
138.175
128.386
119.972
112.748
106.626
101.545
97.4441
94.2279
91.7502
89.8306
88.2902
86.9798
85.7881
84.6436
83.4991
82.3395
81.1419
79.956
78.7085
78.0322
518.287
334.726
250.406
205.642
178.012
158.884
144.115
132.121
122.007
113.071
105.334
98.4826
92.4183
87.0809
82.4317
78.4441
75.092
72.3356
70.1111
68.3308
66.8947
65.7068
64.6808
63.7558
62.8748
62.0241
61.1456
60.3197
59.3466
58.7962
383.631
202.014
146.991
121.919
107.286
97.5629
89.779
83.5019
78.0606
73.1587
68.7483
64.7443
61.1071
57.826
54.8977
52.3198
50.0873
48.1889
46.6024
45.2937
44.2178
43.3275
42.57
41.9116
41.2989
40.7411
40.1492
39.6489
38.9798
38.5265
151.871
75.045
58.066
50.4155
45.7385
42.6148
40.0337
37.7951
35.7754
33.9045
32.1716
30.5405
29.0034
27.5821
26.2878
25.1252
24.0951
23.1949
22.4188
21.7576
21.1969
20.7232
20.3141
19.963
19.6344
19.3529
19.0451
18.7987
18.5055
18.1804
12.4958
9.27947
7.62615
6.69594
6.09708
5.67241
5.34067
5.06305
4.81939
4.5984
4.3942
4.20422
4.02659
3.85989
3.70371
3.55802
3.42292
3.29851
3.18482
3.0817
2.98883
2.90547
2.83112
2.76391
2.7047
2.64822
2.60155
2.54992
2.50822
2.45314
630.054
542.412
347.882
164.432
53.5864
0.132622
15.7509
30.4024
44.0067
57.267
73.9539
105.493
160.646
226.479
280.785
309.883
298.692
268.049
253.401
240.977
230.271
220.884
212.545
205.076
198.396
192.556
187.857
185.021
631.052
546.73
399.789
189.128
78.4393
1.5515
1.76967
22.155
36.6849
49.9209
62.8186
79.2515
110.061
163.089
226.009
277.977
305.957
293.718
262.693
248.92
237.227
227.081
218.12
210.106
202.889
196.405
190.715
186.125
183.354
632.824
554.431
444.043
267.972
141.05
40.2521
18.9309
26.8481
40.6096
53.326
64.928
76.3558
91.224
118.624
164.845
219.901
266.266
292.12
280.617
251.712
239.897
229.672
220.625
212.494
205.117
198.395
192.298
186.907
182.535
179.897
634.933
563.452
467.008
344.17
213.761
122.409
70.9441
65.7454
71.923
79.8131
87.711
95.9272
107.279
128.348
163.865
207.213
245.384
268.368
259.795
235.918
226.984
218.817
211.28
204.286
197.782
191.743
186.184
181.212
177.146
174.698
636.981
572.36
489.274
389.598
291.509
197.71
149.91
129.814
122.964
121.537
122.139
124.136
128.939
140.138
160.351
186.737
211.957
229.006
232.733
216.833
211.233
205.393
199.558
193.854
188.356
183.116
178.195
173.725
170.029
167.812
638.414
578.918
506.044
423.341
341.578
273.751
226.677
197.491
179.534
167.519
159.272
153.782
151.1
152.589
159.416
170.514
182.775
192.467
196.967
196.631
193.985
190.27
186.045
181.606
177.126
172.718
168.478
164.554
161.263
159.3
638.694
581.221
514.392
442.715
372.922
312.425
265.842
232.448
208.871
191.735
178.72
168.807
161.832
158.101
158.227
161.936
167.713
173.302
176.795
177.604
176.516
174.249
171.283
167.923
164.366
160.746
157.176
153.802
150.922
149.221
637.243
577.489
512.112
446.42
384.72
330.729
286.722
252.481
226.285
206.053
190.164
177.456
167.449
160.341
156.236
155.035
156.019
157.939
159.506
159.965
159.308
157.778
155.633
153.083
150.286
147.359
144.406
141.556
139.07
137.623
633.229
565.504
497.002
433.469
377.062
328.653
288.468
255.901
229.796
208.813
191.817
178.008
166.539
157.554
151.082
146.929
144.757
143.905
143.569
143.111
142.249
140.937
139.233
137.228
135.011
132.659
130.247
127.877
125.755
124.542
625.139
541.831
466.103
402.681
350.525
307.588
272.219
243.15
219.272
199.583
183.267
169.741
158.248
148.768
141.372
135.806
131.895
129.295
127.541
126.18
124.9
123.537
122.028
120.367
118.575
116.686
114.738
112.799
111.002
109.997
609.841
501.008
415.937
353.194
306.146
269.577
240.187
216.067
196.012
179.169
164.968
152.952
142.508
133.75
126.546
120.739
116.226
112.831
110.299
108.347
106.728
105.265
103.849
102.419
100.948
99.4351
97.8821
96.3352
94.8263
93.9997
580.13
434.89
343.575
285.863
246.728
218.142
195.81
177.628
162.411
149.405
138.305
128.545
120.139
112.877
106.68
101.483
97.2246
93.816
91.1288
89.0033
87.2783
85.8148
84.5051
83.2764
82.0771
80.8874
79.6781
78.4956
77.2526
76.5763
518.234
334.548
250.11
205.254
177.572
158.444
143.715
131.8
121.743
112.884
105.222
98.4121
92.379
87.0515
82.3891
78.3622
74.9434
72.0949
69.7595
67.8595
66.3055
65.0104
63.8938
62.8973
61.9631
61.0772
60.1772
59.3442
58.3681
57.8098
383.611
201.935
146.845
121.711
107.028
97.2843
89.495
83.2441
77.8351
72.9738
68.6051
64.6375
61.0304
57.7693
54.8487
52.2642
50.0099
48.0745
46.4379
45.07
43.9305
42.9777
42.1629
41.4559
40.8037
40.2178
39.6053
39.0953
38.4219
37.9603
151.869
75.0275
58.0249
50.3513
45.6493
42.5105
39.9222
37.6864
35.6754
33.8175
32.0978
30.4848
28.9645
27.5563
26.2699
25.1095
24.0754
23.1651
22.3733
21.6917
21.1076
20.6094
20.1761
19.8034
19.4556
19.1599
18.8403
18.5867
18.2906
17.9598
12.4958
9.27913
7.62454
6.69259
6.09172
5.66524
5.33207
5.05362
4.80972
4.58897
4.38537
4.19609
4.01927
3.85341
3.69796
3.5528
3.41795
3.29346
3.17932
3.07535
2.98128
2.8964
2.82034
2.75128
2.69032
2.63199
2.58406
2.53052
2.48909
2.43186
633.182
556.175
450.014
321.2
171.329
70.1181
38.8278
52.752
62.8043
72.4588
81.3307
89.9757
101.186
121.342
155.682
197.918
235.48
258.421
261.391
242.198
233.062
224.324
216.187
208.659
201.711
195.307
189.453
184.249
180.012
177.459
633.98
559.604
458.79
335.506
192.891
88.4788
52.8571
64.3979
71.8821
80.0049
87.7467
95.5134
105.964
125.054
157.46
197.33
232.956
254.877
257.682
237.954
229.372
221.134
213.404
206.202
199.511
193.312
187.621
182.544
178.4
175.904
635.361
565.467
472.693
356.093
233.643
142.706
101.231
91.3605
92.6793
97.0064
101.961
107.521
115.856
131.927
159.451
193.796
225.138
245.012
247.979
229.288
221.919
214.684
207.755
201.187
195
189.205
183.836
179.012
175.054
172.673
636.977
572.345
489.237
389.521
291.386
197.536
149.774
129.709
122.869
121.456
122.072
124.08
128.892
140.098
160.318
186.711
211.937
228.991
232.721
216.823
211.225
205.386
199.552
193.849
188.352
183.112
178.192
173.722
170.027
167.81
638.44
578.697
504.604
419.478
335.253
253.82
201.826
173.06
158.055
149.822
145.076
142.533
142.726
147.724
159.401
176.482
194.41
207.978
213.24
201.684
198.099
193.82
189.21
184.483
179.778
175.187
170.798
166.755
163.375
161.357
639.311
582.854
515.504
441.4
368.393
305.585
258.197
225.356
202.867
187.02
175.117
166.46
160.729
158.593
160.799
166.837
174.651
181.493
185.108
185.341
183.538
180.664
177.197
173.422
169.515
165.599
161.778
158.197
155.163
153.365
639.131
583.232
519.418
452.489
387.875
330.991
285.201
250.456
224.524
204.916
189.749
177.739
168.7
162.737
160.145
160.763
163.548
166.834
169.035
169.48
168.493
166.531
163.941
160.969
157.783
154.507
151.244
148.13
145.449
143.876
637.352
578.145
514.132
450.789
391.894
340.174
297.163
262.73
235.585
214.112
196.941
183.137
171.872
163.409
157.738
154.702
153.781
154.036
154.418
154.229
153.309
151.752
149.713
147.338
144.746
142.032
139.286
136.62
134.277
132.922
633.133
565.322
497.187
434.636
379.602
332.481
293.098
260.784
234.483
213.047
195.479
181.067
169.03
159.262
151.92
146.724
143.405
141.447
140.2
139.107
137.862
136.36
134.599
132.623
130.486
128.244
125.954
123.703
121.674
120.522
624.948
541.25
465.388
402.199
350.586
308.31
273.503
244.775
221.013
201.273
184.796
171.036
159.313
149.474
141.634
135.512
130.95
127.668
125.286
123.416
121.768
120.166
118.521
116.802
115.008
113.153
111.262
109.391
107.646
106.674
609.638
500.356
414.986
352.158
305.233
268.93
239.854
216.012
196.15
179.42
165.247
153.207
142.709
133.833
126.436
120.36
115.505
111.72
108.792
106.48
104.565
102.879
101.306
99.78
98.2599
96.7329
95.1914
93.6725
92.1866
91.3722
579.969
434.372
342.78
284.895
245.709
217.182
194.982
176.968
161.898
149.032
138.004
128.309
119.943
112.665
106.41
101.103
96.6827
93.0696
90.1533
87.7977
85.8619
84.2204
82.7707
81.44
80.1727
78.9447
77.7193
76.5398
75.3008
74.6218
518.14
334.246
249.621
204.614
176.832
157.673
142.969
131.136
121.142
112.385
104.808
98.064
92.0824
86.7821
82.1192
78.0607
74.5774
71.6337
69.179
67.1468
65.4598
64.0417
62.819
61.7369
60.7377
59.8081
58.8804
58.0376
57.0567
56.4861
383.58
201.818
146.631
121.404
106.64
96.8534
89.0428
82.8099
77.4321
72.6172
68.2962
64.3744
60.8072
57.5754
54.6702
52.0847
49.8114
47.839
46.1495
44.7169
43.5063
42.4823
41.6009
40.8364
40.1364
39.5158
38.8774
38.3543
37.6757
37.2003
151.867
75.0042
57.9695
50.2635
45.5249
42.3613
39.7581
37.5199
35.5148
33.6696
31.9641
30.371
28.8704
27.4785
26.2032
25.0473
24.0106
23.0907
22.2825
21.5791
20.969
20.4431
19.982
19.584
19.2132
18.9001
18.5662
18.3018
18.0073
17.6594
12.4958
9.27869
7.62248
6.68822
6.08457
5.65544
5.32003
5.04007
4.79537
4.57448
4.37126
4.18258
4.00656
3.84157
3.68695
3.54244
3.40796
3.28347
3.1689
3.06406
2.9687
2.88215
2.80419
2.73302
2.67006
2.60942
2.56072
2.50117
2.4781
2.39083
635.811
567.987
480.66
374.987
272.343
181.955
135.099
135.191
129.786
127.433
126.604
126.996
129.806
138.106
153.58
174.801
195.622
210.32
216.556
215.364
211.141
205.805
200.121
194.429
188.894
183.602
178.629
174.114
170.382
168.143
636.369
570.326
486.174
385.689
287.477
196.726
148.274
147.502
139.172
135.032
132.832
132.172
134.052
141.172
155.181
174.479
193.736
207.496
213.348
212.223
208.254
203.201
197.777
192.309
186.962
181.825
176.981
172.567
168.911
166.719
637.323
574.313
495.352
403.114
312.643
239.422
194.271
170.058
157.1
148.985
144.3
141.612
141.605
146.346
157.427
173.077
189.384
201.412
206.655
205.824
202.401
197.914
193
187.97
182.991
178.161
173.57
169.36
165.856
163.759
638.408
578.896
505.994
423.246
341.432
273.579
226.517
197.352
179.411
167.413
159.183
153.707
151.036
152.533
159.368
170.473
182.742
192.44
196.944
196.612
193.969
190.257
186.034
181.596
177.118
172.71
168.471
164.548
161.257
159.295
639.309
582.845
515.485
441.366
368.341
305.521
258.134
225.3
202.816
186.976
175.079
166.427
160.701
158.569
160.778
166.818
174.636
181.48
185.097
185.332
183.53
180.657
177.192
173.417
169.511
165.595
161.774
158.194
155.16
153.362
639.669
584.853
521.39
453.885
388.168
330.278
283.923
249.094
223.344
204.05
189.217
177.524
168.909
163.454
161.524
162.907
166.416
170.214
172.589
172.942
171.763
169.598
166.823
163.684
160.352
156.947
153.572
150.364
147.612
145.994
639.086
583.556
521.538
458.163
397.886
344.438
300.054
264.837
237.366
215.851
198.781
185.117
174.132
166.117
161.043
158.789
158.702
159.644
160.407
160.291
159.257
157.5
155.23
152.621
149.805
146.883
143.947
141.118
138.653
137.22
637.032
577.341
513.758
452.021
395.44
345.881
304.147
269.991
242.396
220.098
201.966
187.187
174.981
165.249
158.144
153.406
150.674
149.278
148.423
147.492
146.221
144.571
142.595
140.372
137.979
135.484
132.957
130.493
128.305
127.052
632.669
563.909
495.424
433.337
379.392
333.51
295.088
263.277
237.072
215.456
197.548
182.696
170.242
159.832
151.709
145.565
141.17
138.138
135.971
134.203
132.529
130.795
128.946
126.978
124.914
122.782
120.623
118.502
116.574
115.486
624.454
539.684
463.162
399.865
348.612
306.949
272.771
244.533
221.066
201.454
184.976
171.116
159.263
149.177
140.971
134.361
129.202
125.273
122.272
119.883
117.845
115.978
114.177
112.386
110.58
108.758
106.926
105.128
103.439
102.502
609.205
498.987
412.966
349.831
302.909
266.83
238.086
214.589
195.015
178.504
164.464
152.485
142.009
133.097
125.567
119.272
114.117
109.971
106.662
103.993
101.774
99.8512
98.1103
96.4756
94.8975
93.3524
91.8213
90.3329
88.8709
88.0669
579.658
433.411
341.337
283.14
243.811
215.296
193.218
175.392
160.508
147.839
136.929
127.365
119.078
111.838
105.566
100.186
95.6339
91.839
88.7083
86.129
83.9821
82.1572
80.5596
79.1185
77.7759
76.5042
75.2593
74.0826
72.8466
72.161
517.973
333.738
248.827
203.583
175.635
156.398
141.692
129.935
120.008
111.377
103.901
97.253
91.3497
86.1043
81.4665
77.3989
73.8702
70.8462
68.283
66.1249
64.307
62.7644
61.431
60.2575
59.1875
58.2091
57.2494
56.3949
55.4073
54.8204
383.529
201.644
146.318
120.955
106.071
96.2068
88.351
82.1202
76.7669
72.0006
67.732
63.8652
60.3489
57.1584
54.2804
51.7049
49.4223
47.421
45.6846
44.1913
42.9115
41.8161
40.866
40.0407
39.2889
38.6299
37.9617
37.4232
36.7365
36.2479
151.863
74.9738
57.8963
50.1457
45.3556
42.1536
39.5241
37.275
35.2701
33.4348
31.743
30.17
28.6913
27.3188
26.0578
24.9097
23.8737
22.9469
22.1246
21.4008
20.7656
20.2122
19.7225
19.2981
18.9027
18.5705
18.22
17.9455
17.6415
17.2952
12.4958
9.27818
7.61995
6.68272
6.07533
5.64247
5.30373
5.02124
4.77488
4.5532
4.34988
4.16151
3.98613
3.82198
3.66821
3.52445
3.39048
3.26615
3.15132
3.04575
2.94921
2.86107
2.78126
2.70795
2.64293
2.58015
2.52901
2.47113
2.42861
2.36779
637.113
574.643
499.515
415.421
333.08
266.321
220.503
190.625
173.856
162.526
154.745
149.268
146.188
146.776
152.191
162.115
173.638
183.51
189.48
190.839
189.461
186.543
182.818
178.709
174.46
170.222
166.115
162.292
159.073
157.156
637.463
576.083
502.749
421.36
341.705
276.314
230.127
199.109
180.712
168.284
159.353
153.079
149.295
149.11
153.579
162.33
172.803
181.908
187.387
188.63
187.297
184.496
180.909
176.934
172.809
168.68
164.666
160.921
157.76
155.88
638.052
578.515
508.199
431.303
356.171
292.268
245.619
214.034
193.19
178.694
167.762
159.997
154.852
153.16
155.794
162.35
170.835
178.425
183.042
184.112
182.887
180.319
177
173.289
169.405
165.492
161.664
158.073
155.03
153.224
638.688
581.199
514.343
442.629
372.795
312.273
265.689
232.307
208.744
191.625
178.623
168.724
161.76
158.038
158.171
161.888
167.671
173.266
176.765
177.578
176.494
174.23
171.266
167.908
164.353
160.734
157.166
153.792
150.913
149.213
639.128
583.22
519.393
452.446
387.813
330.915
285.122
250.381
224.455
204.855
189.695
177.691
168.659
162.701
160.112
160.734
163.522
166.812
169.016
169.464
168.479
166.518
163.93
160.959
157.775
154.499
151.237
148.124
145.443
143.87
639.084
583.552
521.529
458.148
397.864
344.411
300.026
264.809
237.34
215.827
198.76
185.098
174.115
166.102
161.029
158.777
158.691
159.634
160.398
160.283
159.25
157.494
155.225
152.617
149.801
146.879
143.943
141.115
138.65
137.217
638.2
581.011
518.905
457.463
400.384
350.009
307.497
272.754
244.768
222.229
203.951
189.084
176.856
167.177
160.197
155.667
153.18
152.007
151.297
150.415
149.121
147.405
145.343
143.025
140.537
137.951
135.338
132.798
130.554
129.264
635.971
574.055
509.436
448.235
393.318
345.712
305.509
272.176
244.78
222.267
203.692
188.339
175.568
164.946
156.742
150.67
146.438
143.598
141.578
139.871
138.173
136.352
134.377
132.263
130.042
127.755
125.445
123.189
121.16
120.008
631.564
560.398
490.443
428.105
374.858
330.13
292.834
261.863
236.159
214.767
196.884
181.908
169.28
158.513
149.836
142.98
137.718
133.773
130.78
128.368
126.255
124.264
122.299
120.319
118.313
116.285
114.255
112.269
110.445
109.421
623.43
536.431
458.434
394.561
343.453
302.37
268.919
241.363
218.439
199.214
182.982
169.243
157.431
147.292
138.885
131.942
126.33
121.871
118.337
115.477
113.069
110.941
108.977
107.105
105.281
103.488
101.717
99.9947
98.3645
97.459
608.369
496.381
409.169
345.429
298.377
262.499
234.139
211.089
191.937
175.796
162.043
150.248
139.932
131.112
123.556
117.147
111.786
107.363
103.741
100.761
98.2662
96.121
94.2161
92.4733
90.8357
89.2714
87.7507
86.2956
84.858
84.0607
579.081
431.681
338.815
280.123
240.552
212.008
190.056
172.454
157.815
145.422
134.702
125.354
117.223
110.097
103.879
98.4907
93.8686
89.9472
86.6492
83.883
81.5508
79.5587
77.8217
76.274
74.8568
73.5412
72.2762
71.1037
69.8707
69.1737
517.672
332.872
247.523
201.932
173.737
154.371
139.639
127.954
118.102
109.626
102.281
95.7684
89.9828
84.8322
80.2581
76.2187
72.6799
69.6086
66.9663
64.707
62.7774
61.1233
59.6871
58.4266
57.2869
56.2597
55.2669
54.4004
53.4065
52.7973
383.444
201.37
145.844
120.287
105.229
95.2465
87.3163
81.068
75.7312
71.0152
66.8062
63.0059
59.5547
56.4215
53.5875
51.0389
48.7636
46.7495
44.9811
43.4402
42.102
40.9435
39.93
39.0471
38.2444
37.5469
36.8479
36.2923
35.5994
35.0898
151.858
74.9323
57.7965
49.984
45.1219
41.8636
39.1932
36.9217
34.9092
33.0797
31.4002
29.8475
28.3925
27.0427
25.8002
24.6648
23.6344
22.7057
21.8741
21.1346
20.4783
19.9007
19.3848
18.9356
18.516
18.1647
17.7975
17.51
17.2037
16.8441
12.4958
9.27758
7.61681
6.67566
6.06324
5.62518
5.28165
4.9953
4.74614
4.52275
4.31867
4.13017
3.95517
3.79173
3.63886
3.49596
3.36269
3.23877
3.12396
3.01798
2.92059
2.83117
2.74978
2.67457
2.6077
2.5427
2.49004
2.42988
2.38665
2.32406
636.417
574.049
504.389
432.399
363.911
305.474
260.393
227.272
204.076
187.12
174.211
164.143
156.793
152.351
151.363
153.847
158.555
163.639
167.425
169.012
168.753
167.195
164.797
161.892
158.705
155.391
152.076
148.909
146.18
144.576
636.613
574.845
506.124
435.484
368.424
310.875
265.911
232.441
208.533
190.887
177.406
166.757
158.936
154.002
152.442
154.24
158.261
162.767
166.141
167.521
167.191
165.64
163.29
160.45
157.334
154.089
150.837
147.724
145.037
143.459
636.932
576.152
509.009
440.658
376.034
319.914
275.253
241.474
216.479
197.643
183.093
171.485
162.741
156.873
154.222
154.724
157.444
160.845
163.447
164.443
163.982
162.447
160.19
157.477
154.497
151.388
148.261
145.258
142.655
141.132
637.238
577.47
512.073
446.353
384.624
330.612
286.598
252.361
226.174
205.953
190.075
177.377
167.38
160.279
156.18
154.986
155.975
157.899
159.471
159.935
159.282
157.755
155.613
153.065
150.269
147.345
144.393
141.543
139.059
137.613
637.349
578.134
514.109
450.751
391.839
340.107
297.09
262.658
235.516
214.05
196.885
183.086
171.826
163.368
157.701
154.669
153.751
154.009
154.394
154.207
153.29
151.735
149.698
147.324
144.733
142.021
139.276
136.611
134.268
132.914
637.031
577.335
513.746
452.002
395.414
345.848
304.111
269.954
242.361
220.065
201.936
187.159
174.956
165.226
158.123
153.387
150.656
149.262
148.409
147.479
146.21
144.561
142.586
140.363
137.971
135.477
132.951
130.487
128.3
127.046
635.97
574.053
509.432
448.229
393.308
345.701
305.496
272.163
244.767
222.255
203.68
188.328
175.558
164.937
156.734
150.662
146.431
143.591
141.571
139.865
138.167
136.347
134.373
132.259
130.039
127.751
125.442
123.186
121.157
120.005
633.691
566.843
499.226
437.397
383.592
337.871
299.535
267.642
241.185
219.196
200.846
185.5
172.62
161.638
152.811
145.888
140.608
136.674
133.693
131.278
129.139
127.102
125.077
123.029
120.95
118.849
116.747
114.696
112.823
111.769
629.377
553.483
480.513
417.141
364.324
320.8
284.918
255.222
230.523
209.863
192.479
177.811
165.331
154.572
145.7
138.45
132.628
128.031
124.399
121.452
118.947
116.71
114.623
112.618
110.658
108.728
106.824
104.976
103.254
102.292
621.487
530.366
449.746
384.796
333.723
293.318
260.819
234.244
212.194
193.694
178.031
164.711
153.174
143.244
134.871
127.818
121.961
117.16
113.244
110.021
107.309
104.956
102.847
100.901
99.0621
97.299
95.5894
93.9494
92.3789
91.5023
606.81
491.652
402.478
337.827
290.593
254.994
227.166
204.748
186.222
170.66
157.403
145.966
136.003
127.424
120.005
113.631
108.206
103.636
99.8108
96.6082
93.9022
91.5777
89.5359
87.7013
86.0136
84.4362
82.9302
81.5143
80.1038
79.3093
578.012
428.588
334.484
275.105
235.239
206.687
184.924
167.636
153.347
141.342
130.917
121.904
114.036
107.124
101.057
95.7551
91.1521
87.1881
83.7984
80.9098
78.4435
76.3225
74.4732
72.8369
71.3566
70.0047
68.7243
67.5612
66.3347
65.6212
517.12
331.354
245.346
199.278
170.763
151.237
136.477
124.887
115.138
106.863
99.6993
93.3769
87.7641
82.7621
78.3052
74.3462
70.8481
67.7784
65.1027
62.7834
60.7766
59.0388
57.5209
56.1884
54.9891
53.9199
52.8976
52.0218
51.0262
50.388
383.292
200.915
145.091
119.261
103.965