/*--------------------------------*- C++ -*----------------------------------*\
  =========                 |
  \\      /  F ield         | OpenFOAM: The Open Source CFD Toolbox
   \\    /   O peration     | Website:  https://openfoam.org
    \\  /    A nd           | Version:  7
     \\/     M anipulation  |
\*---------------------------------------------------------------------------*/
FoamFile
{
    version     2.0;
    format      ascii;
    class       volScalarField;
    location    "100";
    object      omega;
}
// * * * * * * * * * * * * * * * * * * * * * * * * * * * * * * * * * * * * * //

dimensions      [0 0 -1 0 0 0 0];

internalField   nonuniform List<scalar> 
27370
(
0.558859
0.694933
1.22081
8.18703
3.19461
3.58908
3.30852
2.81164
2.03688
1.29528
0.905136
0.732259
0.660616
0.646545
0.656035
0.657089
0.65503
0.649962
0.642825
0.634542
0.625552
0.61617
0.60667
0.597502
0.590118
0.557163
0.674271
1.07243
5.24526
5.1245
4.32357
3.35592
2.66052
1.92543
1.26311
0.901349
0.735736
0.665552
0.65287
0.66319
0.663064
0.660032
0.653996
0.646296
0.637587
0.628273
0.618643
0.608946
0.599613
0.592088
0.554927
0.650573
0.894179
2.54638
16.5808
6.80683
4.11136
2.97524
2.31321
1.73534
1.22076
0.909335
0.754276
0.684186
0.670284
0.678542
0.675802
0.670137
0.662445
0.653561
0.643969
0.633989
0.623842
0.613733
0.604049
0.596219
0.551758
0.632754
0.824798
1.44512
5.48741
97.742
7.6513
4.3294
3.05204
2.37411
1.93507
1.5499
1.18803
0.935088
0.791921
0.719666
0.700408
0.702384
0.694471
0.685272
0.675166
0.664552
0.653689
0.642748
0.631858
0.621151
0.610951
0.602657
0.548122
0.613289
0.742893
1.02055
1.81032
3.958
5.8784
3.98889
3.0836
2.48225
2.07693
1.79048
1.56988
1.36255
1.15108
0.973712
0.852257
0.779525
0.744234
0.733234
0.718659
0.705091
0.69201
0.679285
0.666868
0.65475
0.642937
0.631477
0.620618
0.611703
0.54505
0.597408
0.688909
0.854398
1.12166
1.58889
1.95409
1.76598
1.68825
1.58397
1.47815
1.38006
1.2889
1.19463
1.0907
0.98805
0.901787
0.838345
0.796461
0.768297
0.747002
0.728982
0.712825
0.697871
0.683778
0.670356
0.657499
0.645173
0.633533
0.623837
0.543259
0.587937
0.657779
0.763952
0.910694
1.07389
1.20936
1.29378
1.30989
1.29456
1.25978
1.2168
1.17015
1.11852
1.05888
0.993855
0.931021
0.87723
0.835261
0.803289
0.777859
0.756488
0.737716
0.720709
0.704978
0.690223
0.67626
0.662984
0.650467
0.639813
0.543289
0.586359
0.646999
0.727269
0.825865
0.931124
1.02454
1.09333
1.12986
1.14188
1.13728
1.12251
1.09962
1.07077
1.03538
0.993988
0.949955
0.907588
0.870123
0.838382
0.811466
0.788167
0.767506
0.748794
0.731568
0.715509
0.700407
0.68612
0.672641
0.660817
0.545825
0.594616
0.656527
0.728765
0.808155
0.888357
0.960646
1.01809
1.05672
1.07805
1.0851
1.08209
1.0722
1.05498
1.03199
1.00387
0.972061
0.938897
0.906756
0.877108
0.850321
0.82617
0.804246
0.784151
0.76556
0.748216
0.73193
0.716549
0.702028
0.688756
0.55221
0.617053
0.691201
0.767464
0.842094
0.911806
0.97282
1.02191
1.05725
1.0794
1.08983
1.09039
1.08565
1.07403
1.05656
1.03472
1.00936
0.98177
0.95348
0.925792
0.899477
0.874832
0.851873
0.830484
0.810514
0.791798
0.774205
0.757577
0.741923
0.726795
0.565537
0.663665
0.764716
0.856212
0.934792
1.00055
1.05412
1.09558
1.12502
1.14339
1.15158
1.15127
1.14621
1.13468
1.11801
1.09755
1.07401
1.04825
1.02127
0.994075
0.967424
0.941802
0.917453
0.894455
0.872803
0.852406
0.833228
0.815041
0.798146
0.780522
0.594052
0.759332
0.910391
1.02882
1.11619
1.17916
1.22436
1.2555
1.27474
1.28461
1.2851
1.28017
1.26905
1.25288
1.23274
1.20938
1.1835
1.15578
1.12698
1.09784
1.06903
1.04105
1.01423
0.988721
0.964635
0.941873
0.920572
0.900186
0.88194
0.860712
0.664512
0.97577
1.21584
1.3702
1.46218
1.51329
1.54145
1.5535
1.5535
1.54785
1.53436
1.51558
1.4928
1.46653
1.43738
1.40593
1.37275
1.33844
1.30361
1.26889
1.23484
1.20192
1.17047
1.14062
1.11259
1.08607
1.06167
1.03771
1.01806
0.991143
0.896594
1.57456
1.95138
2.11897
2.17967
2.18207
2.16761
2.13678
2.09927
2.0594
2.01668
1.97218
1.92649
1.87964
1.83174
1.78307
1.73404
1.68514
1.63696
1.59003
1.5449
1.50191
1.46148
1.42344
1.38839
1.35504
1.32566
1.29497
1.27386
1.23676
2.25129
3.88455
4.19851
4.15162
4.01753
3.85036
3.69883
3.56034
3.43275
3.31426
3.20151
3.09597
2.99639
2.90034
2.8068
2.71558
2.627
2.5416
2.46007
2.38299
2.31093
2.244
2.1827
2.12591
2.07536
2.0265
1.98676
1.94055
1.91577
1.85627
25.3733
18.8431
15.4888
13.6036
12.3916
11.5327
10.8614
10.2986
9.80355
9.35345
8.93673
8.54899
8.18611
7.84561
7.52694
7.23029
6.95608
6.70472
6.47635
6.27068
6.08694
5.9234
5.77869
5.64877
5.53474
5.42595
5.33709
5.23153
5.17689
5.02857
0.557162
0.674264
1.07234
5.26404
5.27186
4.35818
3.36458
2.66323
1.92615
1.26324
0.901369
0.735738
0.665553
0.652872
0.663194
0.663068
0.660036
0.653999
0.646298
0.637589
0.628275
0.618644
0.608947
0.599614
0.592089
0.555816
0.660402
0.97709
3.85486
6.58853
4.3938
3.23345
2.51
1.83118
1.23482
0.898013
0.739133
0.670353
0.659031
0.670098
0.668962
0.664819
0.657979
0.649721
0.640595
0.630966
0.621092
0.611202
0.601705
0.59404
0.553679
0.642244
0.852025
2.20111
83.551
19.4304
6.10433
3.81239
2.80247
2.19646
1.66777
1.19783
0.906123
0.757173
0.688534
0.675945
0.684956
0.681261
0.6746
0.666219
0.656823
0.646847
0.636575
0.626203
0.615913
0.606074
0.598108
0.550631
0.626675
0.796088
1.28988
3.88256
70.583
33.1516
6.32772
3.90799
2.85195
2.25904
1.86052
1.50494
1.16973
0.93141
0.793805
0.723187
0.70527
0.707975
0.699244
0.689297
0.678617
0.667567
0.656372
0.645176
0.634086
0.623216
0.612875
0.604452
0.54725
0.608829
0.727275
0.975513
1.61307
2.82371
4.57152
3.38914
2.78575
2.31412
1.97337
1.72235
1.5229
1.33218
1.13646
0.96992
0.853707
0.782887
0.747975
0.737714
0.722621
0.708541
0.695038
0.681977
0.669297
0.656969
0.644988
0.63339
0.622406
0.61337
0.544447
0.594498
0.680211
0.829545
1.0625
1.476
1.7942
1.63648
1.593
1.51309
1.42569
1.34068
1.25917
1.17342
1.07815
0.982936
0.901504
0.840507
0.799509
0.771512
0.750041
0.731765
0.715357
0.700181
0.685901
0.672322
0.659335
0.646896
0.635152
0.625345
0.542874
0.586161
0.652976
0.752428
0.887181
1.03574
1.16153
1.24374
1.26672
1.2576
1.23083
1.19358
1.15166
1.1043
1.04909
0.988399
0.929036
0.877505
0.836729
0.805259
0.779971
0.758576
0.739714
0.722598
0.706757
0.6919
0.677844
0.664485
0.651885
0.64113
0.543061
0.585336
0.644389
0.721579
0.815244
0.914849
1.00396
1.0707
1.10826
1.12254
1.12035
1.10849
1.08795
1.06132
1.02821
0.989192
0.947365
0.90673
0.870413
0.83933
0.812748
0.789592
0.768971
0.750245
0.732978
0.716868
0.70171
0.687365
0.673826
0.661913
0.545703
0.594069
0.655157
0.725888
0.803031
0.880644
0.950733
1.00681
1.04524
1.06715
1.07523
1.07321
1.06463
1.04861
1.02685
1.00004
0.969549
0.937561
0.906336
0.877319
0.85093
0.82701
0.805208
0.785167
0.76659
0.749235
0.732924
0.71751
0.702949
0.689597
0.552153
0.616796
0.690554
0.766099
0.83961
0.907996
0.967783
1.01599
1.05094
1.07312
1.08388
1.08491
1.08063
1.0697
1.05289
1.03177
1.00718
0.98033
0.952692
0.925519
0.899575
0.875181
0.85238
0.831084
0.811162
0.792462
0.774867
0.758224
0.742548
0.727347
0.565517
0.663576
0.764479
0.855669
0.933727
0.998803
1.05164
1.09248
1.12152
1.13972
1.14793
1.14774
1.14286
1.13164
1.11532
1.09525
1.07215
1.04685
1.02031
0.99349
0.967141
0.941746
0.917556
0.894661
0.87307
0.852704
0.833535
0.81534
0.798435
0.78074
0.594051
0.759336
0.910394
1.02875
1.11591
1.17852
1.22329
1.25396
1.27285
1.28246
1.28278
1.27782
1.26669
1.25063
1.23064
1.2075
1.18187
1.15442
1.1259
1.09703
1.06845
1.04065
1.01396
0.988548
0.964518
0.941783
0.920489
0.900085
0.881835
0.860529
0.664518
0.97583
1.216
1.37044
1.46239
1.51331
1.54118
1.55282
1.55257
1.54659
1.53277
1.51386
1.49099
1.46469
1.43558
1.40422
1.37119
1.33705
1.30241
1.26787
1.23399
1.2012
1.16985
1.14005
1.11205
1.08553
1.06111
1.03711
1.01744
0.990422
0.896601
1.57467
1.9517
2.11946
2.18022
2.18244
2.16778
2.13654
2.09869
2.05847
2.01542
1.97068
1.92481
1.87786
1.82993
1.7813
1.73236
1.68359
1.63554
1.58875
1.54373
1.50082
1.46041
1.42236
1.38728
1.35385
1.32441
1.29358
1.27244
1.23517
2.2513
3.88474
4.19898
4.15214
4.01804
3.85058
3.69868
3.55974
3.43176
3.31293
3.19998
3.09408
2.99424
2.89805
2.80448
2.71333
2.62486
2.53959
2.45819
2.38118
2.30915
2.24216
2.18075
2.12377
2.073
2.02385
1.98392
1.93737
1.91246
1.85271
25.3733
18.8428
15.4875
13.601
12.3877
11.5277
10.8557
10.2927
9.79776
9.34819
8.93224
8.54523
8.18313
7.84337
7.5253
7.22906
6.95501
6.7035
6.47468
6.26823
6.08344
5.91862
5.77249
5.64108
5.52567
5.4155
5.32563
5.21892
5.16379
5.01473
0.554925
0.650564
0.894173
2.54504
19.6539
6.83991
4.12863
2.98331
2.31689
1.73671
1.2211
0.909408
0.754292
0.684193
0.670294
0.678556
0.675815
0.670148
0.662454
0.653568
0.643976
0.633994
0.623847
0.613737
0.604053
0.596222
0.553681
0.642256
0.8522
2.20644
86.2672
19.7503
6.11898
3.82042
2.80653
2.19845
1.66857
1.19804
0.906172
0.757185
0.688539
0.675952
0.684966
0.681269
0.674607
0.666225
0.656828
0.646852
0.636579
0.626206
0.615916
0.606077
0.59811
0.551401
0.629433
0.78755
1.48369
6.44626
8.59946
4.55704
3.15659
2.43245
1.963
1.54731
1.16758
0.912939
0.773487
0.705417
0.691687
0.69889
0.692406
0.683823
0.674033
0.663595
0.652839
0.641972
0.631135
0.62047
0.610308
0.602049
0.548642
0.616122
0.755107
1.09368
2.20026
6.50941
10.4969
6.83266
4.3147
3.11455
2.44291
2.01654
1.70663
1.42045
1.14344
0.934613
0.806674
0.737602
0.71895
0.719992
0.709164
0.697637
0.685776
0.673838
0.661968
0.65025
0.638746
0.627538
0.6169
0.608197
0.545735
0.601265
0.703217
0.904697
1.33228
2.01457
2.55611
2.5492
2.28563
2.008
1.77631
1.58965
1.43173
1.27571
1.11232
0.967462
0.861328
0.793656
0.758548
0.747296
0.730898
0.71572
0.701344
0.687597
0.674377
0.661619
0.64929
0.637399
0.626152
0.616854
0.543402
0.589536
0.665985
0.791686
0.975382
1.19759
1.36963
1.44202
1.43707
1.39797
1.33767
1.27361
1.20844
1.13766
1.0577
0.975591
0.902751
0.846042
0.806408
0.778385
0.75644
0.7376
0.720663
0.705029
0.690361
0.676458
0.663196
0.650518
0.638551
0.628501
0.542212
0.58313
0.644911
0.733671
0.849888
0.979588
1.09131
1.16401
1.19456
1.19557
1.18083
1.1531
1.11937
1.07958
1.03229
0.979339
0.926247
0.878829
0.840192
0.809575
0.784491
0.763009
0.743945
0.726592
0.710518
0.695444
0.681189
0.667647
0.654867
0.643892
0.542678
0.583609
0.639989
0.712067
0.79768
0.8885
0.97053
1.03293
1.07138
1.08909
1.09112
1.08353
1.06736
1.04467
1.01564
0.980937
0.943126
0.905662
0.871456
0.841576
0.815596
0.792689
0.772122
0.75335
0.735986
0.719757
0.704473
0.69
0.676326
0.664214
0.545505
0.593178
0.652893
0.72109
0.79444
0.867716
0.934015
0.987557
1.0254
1.04816
1.05797
1.05755
1.05114
1.0374
1.01781
0.993372
0.965287
0.935456
0.905921
0.878073
0.852418
0.828922
0.807337
0.787384
0.768816
0.751424
0.735048
0.719553
0.704899
0.691368
0.55207
0.616414
0.68955
0.763906
0.835526
0.901633
0.95926
1.00585
1.04004
1.06218
1.07347
1.07529
1.07176
1.06205
1.04642
1.02661
1.00341
0.97793
0.951496
0.925274
0.900018
0.876086
0.853574
0.832442
0.812597
0.793915
0.7763
0.75961
0.743877
0.728511
0.565496
0.663483
0.764192
0.85491
0.932106
0.996004
1.04757
1.08728
1.11557
1.1334
1.1416
1.14159
1.137
1.12629
1.11057
1.09121
1.0689
1.04443
1.01869
0.992572
0.966783
0.941805
0.917904
0.895194
0.873708
0.853386
0.83422
0.815994
0.799059
0.781203
0.594058
0.759399
0.910517
1.02881
1.11566
1.17766
1.22166
1.25151
1.26973
1.27883
1.27883
1.27376
1.26257
1.24666
1.22692
1.20413
1.17894
1.152
1.12399
1.0956
1.06744
1.03997
1.01353
0.988277
0.964341
0.941641
0.920348
0.899899
0.881628
0.860148
0.664533
0.975979
1.2164
1.37103
1.46299
1.5136
1.54096
1.55184
1.5511
1.5445
1.53004
1.51085
1.48776
1.46138
1.4323
1.40109
1.36829
1.33446
1.30015
1.26595
1.23236
1.1998
1.16862
1.13892
1.11097
1.08442
1.05997
1.03586
1.01616
0.988923
0.896614
1.57489
1.95235
2.12046
2.18136
2.18329
2.16826
2.13627
2.09774
2.05685
2.01318
1.96795
1.9217
1.87452
1.8265
1.77791
1.72911
1.68055
1.63274
1.58617
1.54134
1.49855
1.4582
1.42012
1.38496
1.35136
1.32179
1.2907
1.26945
1.23187
2.2513
3.8851
4.19983
4.1531
4.01899
3.85096
3.69835
3.55855
3.42978
3.31025
3.19688
3.09031
2.98997
2.89349
2.79984
2.70876
2.62048
2.53544
2.45423
2.37735
2.30532
2.23819
2.17652
2.11914
2.06795
2.01822
1.97786
1.93067
1.90546
1.84517
25.3732
18.8423
15.4852
13.5963
12.3803
11.518
10.8443
10.2805
9.78571
9.33687
8.92212
8.53633
8.1756
7.83715
7.52019
7.2247
6.95094
6.69918
6.4695
6.26159
6.07479
5.90751
5.75867
5.62438
5.50627
5.3934
5.30152
5.19251
5.13642
4.98581
0.551766
0.632803
0.825153
1.44852
5.56876
103.93
7.70869
4.34999
3.06212
2.37963
1.93814
1.55138
1.18855
0.935252
0.79198
0.719696
0.700436
0.702415
0.694497
0.685293
0.675185
0.664567
0.653701
0.642759
0.631868
0.621159
0.610958
0.602663
0.550639
0.626717
0.796329
1.29196
3.90655
60.4332
33.917
6.37571
3.92291
2.85899
2.26294
1.86274
1.50604
1.17014
0.931545
0.793856
0.723213
0.705295
0.708001
0.699265
0.689315
0.678632
0.667579
0.656382
0.645185
0.634093
0.623222
0.612881
0.604456
0.548647
0.616147
0.755206
1.09424
2.20568
6.53761
10.4819
6.85557
4.32702
3.11957
2.4455
2.01806
1.70754
1.42094
1.14365
0.934693
0.806708
0.737621
0.718967
0.720008
0.709177
0.697648
0.685785
0.673845
0.661974
0.650255
0.638751
0.627542
0.616903
0.6082
0.546269
0.604081
0.713291
0.938938
1.45998
2.34163
3.56588
3.41862
2.83995
2.35736
2.00287
1.7404
1.52967
1.32599
1.11933
0.948447
0.833071
0.764973
0.742477
0.738241
0.724034
0.710127
0.69655
0.683345
0.670515
0.658052
0.645955
0.634256
0.62318
0.614053
0.54394
0.592507
0.676325
0.822742
1.05052
1.47351
1.78574
1.8801
1.81362
1.68646
1.55489
1.43461
1.3238
1.20957
1.08595
0.969065
0.876496
0.812795
0.776333
0.761807
0.743294
0.726486
0.710859
0.696143
0.68216
0.66879
0.65596
0.643646
0.632011
0.622314
0.542181
0.583803
0.649922
0.751219
0.891046
1.05007
1.18408
1.25966
1.2806
1.26878
1.23726
1.19549
1.1488
1.09559
1.03383
0.967811
0.906003
0.85496
0.816984
0.788744
0.766045
0.746391
0.728713
0.712438
0.697227
0.682863
0.669205
0.656181
0.643884
0.633463
0.54146
0.579686
0.635789
0.712927
0.810094
0.916386
1.01121
1.07834
1.11445
1.1258
1.12082
1.10479
1.08051
1.04981
1.01211
0.968665
0.923527
0.881486
0.845679
0.816187
0.791367
0.769764
0.750425
0.732749
0.716348
0.700964
0.686424
0.672616
0.659569
0.648255
0.542266
0.581732
0.635121
0.701482
0.778205
0.858561
0.932088
0.990005
1.02875
1.04975
1.05644
1.05304
1.04232
1.02443
1.00041
0.971059
0.938314
0.904943
0.873512
0.845242
0.82008
0.79752
0.777034
0.758199
0.740699
0.724299
0.70883
0.694168
0.680292
0.667872
0.54532
0.592315
0.650571
0.71595
0.78495
0.853095
0.914794
0.965299
1.00219
1.02565
1.03725
1.03891
1.03462
1.0238
1.00691
0.985417
0.960355
0.933281
0.905943
0.879638
0.854966
0.832043
0.810755
0.790922
0.772362
0.75491
0.738436
0.722817
0.708023
0.694212
0.552018
0.616159
0.688736
0.76185
0.831375
0.89478
0.949765
0.994322
1.02744
1.04937
1.06114
1.06387
1.06114
1.05286
1.03868
1.02048
0.999027
0.975281
0.950392
0.925407
0.901057
0.877739
0.855611
0.834696
0.814948
0.796283
0.778631
0.761864
0.746044
0.730419
0.565513
0.663558
0.764221
0.854564
0.930877
0.993424
1.04345
1.08173
1.10899
1.12623
1.13431
1.13445
1.13009
1.11993
1.10491
1.0864
1.06507
1.04164
1.01691
0.991686
0.966621
0.942185
0.918662
0.896192
0.87484
0.854568
0.835398
0.817115
0.800134
0.782023
0.594098
0.759631
0.91101
1.02943
1.11606
1.17742
1.22049
1.24926
1.26659
1.27489
1.27451
1.26912
1.25771
1.24191
1.22243
1.20003
1.17536
1.14902
1.12165
1.09386
1.06624
1.03919
1.01306
0.988016
0.964198
0.941535
0.920233
0.899706
0.881407
0.859654
0.664571
0.976281
1.21717
1.37225
1.46436
1.51469
1.54142
1.5513
1.54988
1.54237
1.527
1.50734
1.48385
1.45726
1.42815
1.39706
1.3645
1.33101
1.29711
1.26331
1.23009
1.19783
1.16686
1.13728
1.10938
1.08279
1.05828
1.034
1.01425
0.986686
0.896639
1.57526
1.95338
2.12208
2.18328
2.18487
2.16935
2.13636
2.09686
2.05497
2.01038
1.96441
1.91756
1.86998
1.82176
1.77314
1.72446
1.67612
1.62859
1.58229
1.53769
1.49505
1.45476
1.41662
1.38134
1.34751
1.31775
1.28627
1.26488
1.22684
2.25131
3.88561
4.20105
4.15449
4.02036
3.85153
3.69785
3.55678
3.42681
3.30621
3.1921
3.08459
2.9835
2.88655
2.7927
2.70165
2.61354
2.52874
2.44776
2.37101
2.29897
2.23164
2.16962
2.11168
2.05992
2.00937
1.96845
1.9203
1.89469
1.83366
25.3732
18.8416
15.4819
13.5895
12.3694
11.5034
10.8269
10.2614
9.76608
9.31774
8.90423
8.51987
8.16079
7.82401
7.50851
7.21406
6.94077
6.68876
6.45804
6.24825
6.05883
5.8883
5.73583
5.59764
5.47585
5.3592
5.26455
5.15226
5.09467
4.94207
0.548136
0.613368
0.743227
1.02203
1.82053
3.99182
5.99168
4.02385
3.09972
2.49101
2.08208
1.79369
1.57194
1.36379
1.15171
0.974012
0.852408
0.779614
0.744298
0.733289
0.718704
0.705127
0.69204
0.679309
0.666889
0.654767
0.642951
0.63149
0.620629
0.611713
0.547262
0.608893
0.727523
0.976567
1.61823
3.21399
4.61424
3.42579
2.7984
2.3208
1.97732
1.72485
1.52453
1.33318
1.13699
0.97018
0.853841
0.782967
0.748033
0.737763
0.72266
0.708573
0.695064
0.681999
0.669315
0.656984
0.645001
0.633401
0.622416
0.613379
0.545743
0.601306
0.703361
0.905249
1.33449
2.02214
2.56392
2.55577
2.29065
2.01127
1.77841
1.59105
1.43267
1.27632
1.11267
0.967648
0.861431
0.79372
0.758594
0.747333
0.730928
0.715745
0.701364
0.687613
0.674391
0.661631
0.6493
0.637408
0.626159
0.616861
0.543944
0.592525
0.67638
0.822913
1.05098
1.4748
1.78728
1.88151
1.81489
1.68745
1.55561
1.43512
1.32416
1.20982
1.08611
0.969159
0.876553
0.812832
0.776359
0.761828
0.74331
0.7265
0.71087
0.696152
0.682167
0.668797
0.655966
0.643651
0.632015
0.622317
0.542257
0.584407
0.652569
0.759442
0.909684
1.15111
1.34757
1.44968
1.46078
1.42063
1.3586
1.29087
1.2215
1.14656
1.06215
0.975414
0.899007
0.840312
0.800843
0.780515
0.759403
0.740662
0.723569
0.707712
0.692819
0.678708
0.66526
0.652414
0.640283
0.630047
0.541091
0.578678
0.635707
0.71717
0.822891
0.939688
1.04338
1.11348
1.14765
1.15378
1.14351
1.12102
1.09116
1.0545
1.01025
0.960546
0.910805
0.866478
0.83062
0.802167
0.778639
0.758078
0.739563
0.72255
0.706697
0.691775
0.677629
0.664168
0.651448
0.640526
0.540847
0.576811
0.627952
0.695055
0.776099
0.863004
0.942609
1.00358
1.04218
1.0608
1.06412
1.05747
1.04247
1.02061
0.992306
0.958431
0.921678
0.885619
0.853131
0.825031
0.8006
0.778917
0.759295
0.741256
0.724473
0.708715
0.693817
0.679671
0.666282
0.654505
0.541995
0.580408
0.631327
0.69271
0.761542
0.832404
0.897782
0.951092
0.989235
1.01253
1.02313
1.0235
1.01763
1.00468
0.985683
0.961752
0.934278
0.905316
0.876989
0.850585
0.826411
0.80429
0.783923
0.765026
0.747366
0.730755
0.715051
0.700145
0.686007
0.673164
0.54527
0.59199
0.649271
0.71234
0.77746
0.840771
0.89796
0.945315
0.980894
1.00464
1.01764
1.02127
1.01879
1.0108
0.996631
0.978137
0.956194
0.932033
0.907076
0.88249
0.85894
0.836684
0.815745
0.79605
0.777493
0.759958
0.74335
0.727566
0.712588
0.69839
0.552089
0.616404
0.688882
0.761214
0.829027
0.889966
0.942323
0.984729
1.01653
1.038
1.04998
1.05347
1.05141
1.0444
1.03163
1.01504
0.995357
0.973404
0.950146
0.926495
0.903139
0.880504
0.858806
0.838129
0.818481
0.799818
0.782104
0.765227
0.749292
0.733306
0.565628
0.664072
0.765131
0.855543
0.931338
0.992749
1.04127
1.07804
1.10409
1.1205
1.12824
1.12837
1.12408
1.11428
1.09988
1.08217
1.06178
1.03939
1.0157
0.991403
0.967106
0.943253
0.920137
0.897923
0.876705
0.856472
0.837278
0.818907
0.801864
0.783399
0.594209
0.760226
0.912282
1.03127
1.11803
1.17896
1.22115
1.24876
1.26502
1.27227
1.27135
1.26539
1.25355
1.23769
1.21833
1.19622
1.17199
1.14622
1.11947
1.0923
1.06521
1.03862
1.01281
0.987974
0.96427
0.941629
0.9203
0.899657
0.881325
0.859196
0.664653
0.976862
1.21861
1.37453
1.46713
1.51734
1.54347
1.55221
1.54997
1.54119
1.5248
1.50436
1.48022
1.45323
1.42391
1.3928
1.36041
1.3272
1.29366
1.26025
1.22739
1.19543
1.16468
1.13522
1.10735
1.0807
1.05611
1.03161
1.01181
0.983803
0.896683
1.57583
1.95495
2.12457
2.18631
2.18762
2.17155
2.13735
2.09662
2.05338
2.0076
1.96058
1.91287
1.86466
1.81605
1.76727
1.71861
1.67044
1.62314
1.5771
1.53272
1.49022
1.44998
1.41176
1.37635
1.34222
1.31223
1.28028
1.25872
1.22013
2.25132
3.88627
4.20264
4.1563
4.02216
3.85228
3.69718
3.5544
3.42277
3.30064
3.1854
3.07666
2.97454
2.87688
2.78265
2.69151
2.60351
2.51893
2.43817
2.36154
2.28948
2.22193
2.15952
2.10094
2.04852
1.99702
1.95541
1.90622
1.87978
1.81849
25.3732
18.8407
15.4777
13.5807
12.3549
11.4835
10.8024
10.2339
9.73695
9.28834
8.8756
8.49246
8.13502
7.80002
7.48616
7.19299
6.92037
6.66825
6.43653
6.22481
6.03256
5.85844
5.70189
5.55925
5.43316
5.3122
5.21357
5.10019
5.02765
4.8916
0.545065
0.597484
0.689163
0.855247
1.12412
1.59519
1.96437
1.77193
1.69253
1.58712
1.48042
1.3817
1.2901
1.1955
1.09128
0.988418
0.90202
0.838499
0.796571
0.768381
0.747067
0.729034
0.712868
0.697906
0.683807
0.67038
0.657521
0.645191
0.633549
0.623851
0.544459
0.594561
0.680414
0.830184
1.0641
1.47823
1.80137
1.6401
1.59627
1.51554
1.42749
1.34201
1.26016
1.17413
1.07865
0.983257
0.901712
0.840646
0.79961
0.771588
0.750101
0.731813
0.715396
0.700213
0.685927
0.672345
0.659355
0.646913
0.635167
0.625358
0.543411
0.589581
0.666118
0.792066
0.97629
1.19918
1.37159
1.44395
1.43886
1.39944
1.33882
1.27448
1.2091
1.13815
1.05805
0.975833
0.902914
0.846154
0.80649
0.778448
0.756489
0.737639
0.720696
0.705056
0.690384
0.676477
0.663212
0.650532
0.638563
0.628511
0.542186
0.583828
0.649992
0.751398
0.891435
1.05072
1.18489
1.26049
1.2814
1.26948
1.23783
1.19595
1.14916
1.09587
1.03404
0.967963
0.906111
0.855037
0.817042
0.788788
0.76608
0.746419
0.728736
0.712457
0.697243
0.682876
0.669217
0.656191
0.643892
0.633471
0.541093
0.578687
0.635732
0.717229
0.823008
0.939884
1.04363
1.11374
1.14791
1.15401
1.14372
1.12119
1.0913
1.05462
1.01034
0.960614
0.910856
0.866515
0.830648
0.802189
0.778657
0.758093
0.739574
0.72256
0.706706
0.691781
0.677635
0.664173
0.651453
0.64053
0.540458
0.575489
0.626174
0.693919
0.776915
0.866506
0.948563
1.0107
1.04918
1.0667
1.06856
1.0605
1.04369
1.02008
0.989857
0.954073
0.915729
0.8787
0.845946
0.818065
0.794015
0.772713
0.753429
0.735685
0.719158
0.703622
0.688921
0.67495
0.661727
0.65016
0.540634
0.575547
0.62354
0.683603
0.753058
0.82593
0.893615
0.948449
0.987013
1.00979
1.01933
1.01868
1.01144
0.996875
0.976381
0.950724
0.921577
0.891398
0.862521
0.836152
0.812345
0.790725
0.770886
0.7525
0.735315
0.719139
0.70383
0.689282
0.675482
0.663107
0.542074
0.580468
0.630266
0.688404
0.751512
0.815097
0.87376
0.922744
0.959513
0.98386
0.997031
1.00066
0.997875
0.989367
0.974675
0.955425
0.932635
0.907797
0.88255
0.85811
0.835032
0.813431
0.793226
0.774275
0.756437
0.739579
0.723594
0.708388
0.693933
0.680537
0.545523
0.592863
0.650281
0.7123
0.774829
0.834423
0.887795
0.93223
0.966253
0.98974
1.00349
1.00858
1.00736
1.00155
0.989729
0.973773
0.954543
0.933012
0.910294
0.887386
0.864965
0.843391
0.822809
0.803246
0.78467
0.767019
0.750235
0.734236
0.719032
0.704321
0.552412
0.61768
0.691022
0.763583
0.830628
0.889869
0.940074
0.980457
1.01079
1.03145
1.04327
1.0471
1.0454
1.0392
1.02752
1.01222
0.994004
0.973598
0.951801
0.929381
0.906963
0.884979
0.863687
0.843222
0.823644
0.804948
0.787133
0.7701
0.754019
0.737552
0.565942
0.665447
0.767757
0.859122
0.935165
0.996016
1.04338
1.07872
1.10345
1.11878
1.12585
1.12567
1.12118
1.11134
1.09728
1.08009
1.0604
1.03884
1.01601
0.992525
0.96891
0.945579
0.922824
0.900826
0.879707
0.859476
0.840221
0.821715
0.804591
0.785656
0.59446
0.761502
0.914989
1.03533
1.1229
1.18387
1.22541
1.25189
1.26697
1.27287
1.27119
1.26427
1.25181
1.23553
1.216
1.19393
1.16993
1.14453
1.11824
1.09156
1.06493
1.0387
1.01317
0.988496
0.964867
0.94221
0.920822
0.900012
0.88164
0.859022
0.664817
0.977942
1.22118
1.37863
1.47228
1.52273
1.54839
1.55591
1.5527
1.54233
1.52471
1.50311
1.47803
1.45031
1.42052
1.38916
1.35672
1.32363
1.29031
1.25718
1.22461
1.19288
1.1623
1.13291
1.10505
1.07829
1.0536
1.02881
1.00898
0.98041
0.896762
1.57673
1.95735
2.12837
2.19102
2.1922
2.17556
2.13999
2.09773
2.05277
2.00546
1.95704
1.90815
1.85901
1.80976
1.7606
1.71178
1.66363
1.61646
1.5706
1.52639
1.48399
1.44378
1.40546
1.36989
1.33543
1.3052
1.27269
1.25101
1.21165
2.25134
3.88711
4.20468
4.15861
4.02448
3.85327
3.69632
3.55131
3.41748
3.29329
3.17643
3.06607
2.96258
2.86392
2.76908
2.67768
2.58969
2.50525
2.42468
2.34817
2.27611
2.20834
2.14557
2.08634
2.03328
1.98075
1.9385
1.88797
1.86136
1.79821
25.3732
18.8397
15.4726
13.5695
12.3362
11.4572
10.7693
10.1957
9.69538
9.24517
8.83224
8.44973
8.09358
7.76026
7.44814
7.15644
6.88476
6.63285
6.40044
6.18705
5.99222
5.81465
5.6541
5.50691
5.37654
5.2506
5.14922
5.02835
4.96724
4.80844
0.543271
0.587998
0.657956
0.764417
0.911753
1.07564
1.21166
1.29621
1.31197
1.29636
1.26117
1.21791
1.17102
1.11919
1.05939
0.99423
0.931289
0.877422
0.835403
0.803397
0.777944
0.756556
0.737772
0.720755
0.705016
0.690255
0.676287
0.663008
0.650488
0.63983
0.542885
0.586213
0.653124
0.752805
0.887986
1.03702
1.16321
1.24553
1.26839
1.25906
1.232
1.19451
1.15241
1.10488
1.04954
0.988733
0.929278
0.877681
0.83686
0.80536
0.78005
0.75864
0.739766
0.722641
0.706793
0.69193
0.67787
0.664507
0.651904
0.641147
0.542221
0.583169
0.645017
0.733925
0.850408
0.980416
1.09236
1.16513
1.19565
1.19654
1.18166
1.15378
1.11992
1.08002
1.03264
0.979602
0.926443
0.878975
0.840302
0.80966
0.784559
0.763063
0.743989
0.726629
0.710549
0.69547
0.681212
0.667667
0.654884
0.643906
0.541466
0.57971
0.635853
0.713072
0.810375
0.916827
1.01177
1.07895
1.11506
1.12636
1.12132
1.10521
1.08086
1.0501
1.01234
0.968848
0.923667
0.881593
0.845762
0.816252
0.791419
0.769807
0.75046
0.732778
0.716373
0.700985
0.686441
0.672631
0.659582
0.648266
0.54085
0.576824
0.627984
0.695124
0.776226
0.8632
0.942859
1.00386
1.04247
1.06107
1.06437
1.05769
1.04266
1.02077
0.992437
0.958537
0.921763
0.885686
0.853184
0.825073
0.800634
0.778945
0.759318
0.741275
0.72449
0.708728
0.693829
0.679681
0.666291
0.654513
0.540635
0.575552
0.623552
0.683627
0.7531
0.825993
0.893696
0.94854
0.987109
1.00988
1.01942
1.01877
1.01151
0.996936
0.976433
0.950767
0.921613
0.891428
0.862546
0.836171
0.812361
0.790738
0.770898
0.75251
0.735323
0.719146
0.703835
0.689287
0.675486
0.66311
0.541131
0.577064
0.624635
0.681317
0.743881
0.807668
0.8669
0.916437
0.953552
0.978
0.99111
0.994639
0.991667
0.98287
0.9679
0.948259
0.925072
0.89993
0.874549
0.850151
0.82724
0.805871
0.785919
0.767222
0.749626
0.732994
0.717217
0.702203
0.687924
0.674789
0.542779
0.582953
0.633817
0.691217
0.751322
0.810249
0.864033
0.909338
0.944288
0.968578
0.982975
0.988638
0.98766
0.982146
0.970629
0.954751
0.935537
0.914039
0.891465
0.868854
0.846861
0.825797
0.805759
0.786741
0.76869
0.751534
0.735208
0.719635
0.704804
0.690697
0.546318
0.595862
0.655272
0.718182
0.780011
0.837495
0.88813
0.930065
0.962366
0.985032
0.998754
1.00445
1.00384
0.999216
0.989011
0.974766
0.9575
0.937974
0.91705
0.895546
0.874096
0.853111
0.832818
0.813326
0.794671
0.77684
0.759817
0.743534
0.728052
0.712674
0.553192
0.620798
0.696638
0.771058
0.838779
0.897452
0.946241
0.984901
1.01367
1.03315
1.04424
1.0478
1.04602
1.03991
1.02874
1.01416
0.996872
0.977527
0.956788
0.935296
0.913599
0.892111
0.871109
0.850765
0.831179
0.812377
0.794395
0.777134
0.760868
0.743768
0.566617
0.668373
0.773392
0.86715
0.944652
1.00581
1.05252
1.08662
1.10993
1.12386
1.1298
1.12895
1.12372
1.11327
1.0991
1.08198
1.06256
1.04143
1.01913
0.996167
0.97301
0.950027
0.9275
0.905611
0.884503
0.864196
0.844815
0.8261
0.808869
0.789319
0.59497
0.764017
0.920226
1.0432
1.13261
1.19432
1.23557
1.26098
1.27473
1.27892
1.27618
1.26782
1.2543
1.23713
1.21701
1.19459
1.17045
1.1451
1.11898
1.09254
1.06615
1.04013
1.01474
0.990136
0.9665
0.943753
0.922251
0.901199
0.88278
0.85954
0.665137
0.979937
1.22577
1.38582
1.48135
1.53253
1.55792
1.56416
1.55979
1.54744
1.52821
1.50501
1.47856
1.4497
1.41905
1.3871
1.35429
1.32104
1.28772
1.25466
1.22221
1.19058
1.16006
1.13066
1.10275
1.07583
1.051
1.02587
1.006
0.97677
0.89691
1.57822
1.96118
2.13436
2.19845
2.1997
2.18245
2.14529
2.10115
2.05401
2.0047
1.95443
1.90393
1.85348
1.80325
1.75341
1.7042
1.65585
1.60865
1.56284
1.5187
1.47632
1.4361
1.39763
1.36191
1.32709
1.29663
1.26351
1.24171
1.20159
2.25137
3.88827
4.20742
4.16171
4.02758
3.85465
3.69526
3.54737
3.41064
3.2837
3.16458
3.05215
2.94687
2.84686
2.75116
2.6593
2.57115
2.48678
2.40635
2.32996
2.25795
2.19002
2.12697
2.06716
2.01355
1.96003
1.91719
1.86542
1.8382
1.77411
25.3732
18.8385
15.4662
13.5552
12.3116
11.4221
10.7245
10.143
9.63702
9.18336
8.76889
8.38612
8.03074
7.69888
7.38852
7.09854
6.82821
6.57702
6.34452
6.13011
5.93334
5.75293
5.58896
5.43766
5.30334
5.17274
5.06813
4.94261
4.87969
4.71736
0.543298
0.586403
0.647118
0.727541
0.826401
0.931962
1.02563
1.09454
1.13101
1.14292
1.1382
1.12326
1.10025
1.0713
1.03581
0.994329
0.950221
0.907795
0.870283
0.838508
0.811567
0.788249
0.767573
0.748851
0.731615
0.71555
0.700442
0.686149
0.672667
0.660839
0.54307
0.585375
0.644492
0.72181
0.815686
0.915529
1.00484
1.07168
1.10923
1.12343
1.12114
1.10915
1.08851
1.06178
1.02859
0.9895
0.947609
0.906919
0.870561
0.839448
0.812842
0.789669
0.769034
0.750298
0.733022
0.716905
0.701742
0.687393
0.67385
0.661934
0.542684
0.58364
0.640067
0.712237
0.797995
0.888981
0.971149
1.03363
1.07208
1.08974
1.09171
1.08406
1.0678
1.04504
1.01595
0.98119
0.943328
0.905822
0.871583
0.841678
0.815678
0.792756
0.772178
0.753396
0.736025
0.719791
0.704502
0.690025
0.676347
0.664232
0.542271
0.581753
0.635173
0.701591
0.778402
0.858858
0.93247
0.990437
1.02919
1.05018
1.05683
1.0534
1.04263
1.02469
1.00063
0.971245
0.938466
0.905067
0.873612
0.845322
0.820146
0.797574
0.777079
0.758236
0.740731
0.724326
0.708853
0.694188
0.680309
0.667887
0.541998
0.580421
0.631358
0.692772
0.761651
0.832566
0.897991
0.951331
0.989487
1.01278
1.02336
1.02371
1.01783
1.00485
0.985826
0.961874
0.93438
0.9054
0.877059
0.850643
0.826458
0.804329
0.783956
0.765054
0.747389
0.730774
0.715068
0.700159
0.686019
0.673175
0.542076
0.580474
0.630281
0.688434
0.751563
0.815172
0.873858
0.922857
0.959635
0.983982
0.997148
1.00077
0.997977
0.989456
0.974753
0.955493
0.932693
0.907846
0.882592
0.858144
0.83506
0.813455
0.793246
0.774293
0.756452
0.739591