/*--------------------------------*- C++ -*----------------------------------*\
  =========                 |
  \\      /  F ield         | OpenFOAM: The Open Source CFD Toolbox
   \\    /   O peration     | Website:  https://openfoam.org
    \\  /    A nd           | Version:  7
     \\/     M anipulation  |
\*---------------------------------------------------------------------------*/
FoamFile
{
    version     2.0;
    format      ascii;
    class       volScalarField;
    location    "100";
    object      p;
}
// * * * * * * * * * * * * * * * * * * * * * * * * * * * * * * * * * * * * * //

dimensions      [0 2 -2 0 0 0 0];

internalField   nonuniform List<scalar> 
27370
(
119.367
188.989
289.753
499.001
-47.3287
-32.0114
-25.5539
-22.0108
-12.3122
-2.33368
2.36417
3.76196
4.25642
4.47426
2.64554
1.7482
1.21369
0.865426
0.629462
0.465419
0.348426
0.262124
0.201873
0.136856
0.178753
103.167
155.926
257.565
433.221
-46.7893
-31.4001
-25.0439
-21.4218
-12.9764
-3.60755
1.39749
3.21416
3.95491
4.20605
2.51371
1.67365
1.17096
0.839548
0.612804
0.45423
0.340647
0.256882
0.197326
0.138823
0.170326
83.7873
107.512
190.389
313.95
-63.0006
-41.3583
-28.3495
-22.4872
-18.3663
-11.2415
-3.55711
0.959009
2.82108
3.63089
3.90557
2.32458
1.56567
1.10622
0.798598
0.586062
0.436238
0.328235
0.248322
0.191187
0.136092
0.16913
66.5374
69.215
108.4
181.848
204.452
-172.011
-62.046
-36.0404
-24.557
-18.922
-14.505
-8.60387
-2.68731
1.008
2.64633
3.32935
3.46024
2.07752
1.41945
1.01747
0.741696
0.548567
0.410863
0.310677
0.236098
0.182638
0.130966
0.16691
50.579
49.4705
57.7891
83.8434
67.4469
9.62102
-68.4059
-66.5077
-40.894
-26.4677
-18.7338
-13.9442
-9.52699
-4.81921
-0.958672
1.37134
2.43852
2.77718
2.66396
1.80875
1.24853
0.91238
0.6739
0.503479
0.380079
0.289222
0.221002
0.171995
0.124011
0.162604
36.2344
35.3542
35.1781
32.9643
18.4592
-4.47422
-31.2242
-30.9924
-22.8403
-16.0367
-11.6755
-8.33582
-5.08298
-1.98298
0.224539
1.38489
1.86628
1.94015
1.6895
1.38637
1.04532
0.791118
0.59781
0.453269
0.34563
0.265034
0.203802
0.159659
0.11547
0.155673
24.8064
23.6711
21.8604
18.0075
9.34713
-7.62539
-16.9006
-19.535
-15.2203
-11.3816
-8.52008
-6.08801
-3.72639
-1.4703
0.228716
1.16963
1.53795
1.57102
1.3867
1.13083
0.882461
0.682021
0.52388
0.402221
0.30967
0.239356
0.185283
0.146095
0.105652
0.145678
16.5517
15.3059
13.1282
8.7702
2.67937
-5.94964
-11.1357
-12.4593
-10.4053
-8.16926
-6.17429
-4.35124
-2.62149
-1.03639
0.184926
0.913419
1.21854
1.24962
1.11797
0.928519
0.740386
0.581423
0.452707
0.351532
0.273228
0.212967
0.166035
0.131729
0.0949242
0.1325
10.9584
9.6413
7.36767
3.43388
-0.965531
-5.74382
-8.35162
-8.87024
-7.64906
-6.13478
-4.65776
-3.2634
-1.95838
-0.798746
0.097881
0.662187
0.923809
0.97043
0.886781
0.751428
0.610508
0.486505
0.383655
0.301289
0.236581
0.186173
0.146365
0.116863
0.0836762
0.116396
7.45986
6.05209
3.74386
0.400068
-2.74684
-5.50713
-6.83062
-6.90698
-6.02112
-4.89451
-3.74941
-2.65009
-1.63314
-0.745089
-0.0553993
0.39898
0.634816
0.704883
0.668494
0.582614
0.484249
0.3928
0.31449
0.250377
0.199151
0.158679
0.126169
0.101561
0.072252
0.0979816
5.53538
4.02181
1.70999
-1.05746
-3.34551
-5.03778
-5.75636
-5.67101
-5.00743
-4.14824
-3.24557
-2.36462
-1.54874
-0.838015
-0.277195
0.111712
0.339043
0.437703
0.448118
0.410531
0.35392
0.29525
0.241969
0.196684
0.159521
0.129517
0.104819
0.0855075
0.0608323
0.0781536
4.71446
3.1243
0.913901
-1.31201
-3.04514
-4.23887
-4.76223
-4.72722
-4.2937
-3.67746
-2.98875
-2.29089
-1.62792
-1.03933
-0.559485
-0.205141
0.0280495
0.159895
0.21715
0.227661
0.213447
0.189034
0.16238
0.137371
0.115497
0.0969834
0.0810331
0.0678358
0.0492465
0.0579479
4.57283
3.01735
1.09403
-0.657041
-2.07503
-3.11629
-3.69574
-3.85694
-3.69443
-3.33492
-2.86311
-2.33871
-1.80869
-1.31462
-0.889205
-0.55072
-0.30192
-0.133433
-0.0291205
0.0294712
0.0585147
0.0700676
0.0720182
0.0691774
0.0642546
0.0586576
0.0527838
0.0469507
0.0367141
0.0383217
4.69146
3.40547
1.944
0.562112
-0.706245
-1.77446
-2.53577
-2.97028
-3.11197
-3.03059
-2.7898
-2.44444
-2.04454
-1.63501
-1.25228
-0.920655
-0.651407
-0.444842
-0.293917
-0.187765
-0.115151
-0.066397
-0.0340695
-0.012797
0.00112502
0.0101912
0.0161062
0.0193657
0.0204558
0.0191612
4.63484
3.92569
2.95686
1.85553
0.689788
-0.427631
-1.37429
-2.07729
-2.51614
-2.71303
-2.7077
-2.54641
-2.27836
-1.95185
-1.60939
-1.28348
-0.99487
-0.753305
-0.559969
-0.410396
-0.297485
-0.213662
-0.152061
-0.107019
-0.0740513
-0.0498002
-0.0313029
-0.0174922
-0.00336543
-0.00131119
4.51574
4.22598
3.61293
2.7391
1.70173
0.608006
-0.422933
-1.29062
-1.93713
-2.34846
-2.53982
-2.54363
-2.40267
-2.16413
-1.87352
-1.56917
-1.27915
-1.02069
-0.801592
-0.622628
-0.480323
-0.369235
-0.283497
-0.21774
-0.16728
-0.128386
-0.0973837
-0.0725407
-0.044511
-0.0307777
103.118
155.937
257.362
432.425
-46.4944
-31.246
-25.0017
-21.406
-12.9685
-3.59892
1.40577
3.22019
3.95877
4.20677
2.51402
1.67409
1.17144
0.840003
0.613222
0.454607
0.340982
0.257177
0.197582
0.139025
0.170515
91.5347
128.208
226.282
379.469
-44.7132
-30.2344
-24.1467
-20.7146
-13.477
-4.77813
0.468139
2.6777
3.65492
3.93023
2.38254
1.60254
1.12983
0.814754
0.596957
0.443648
0.333354
0.25199
0.193234
0.141702
0.158427
76.4428
89.7233
165.445
264.718
375.66
-65.237
-39.8876
-27.2791
-21.51
-17.7481
-11.616
-4.49481
0.161172
2.33308
3.34344
3.63047
2.19961
1.49782
1.06711
0.775044
0.57093
0.426076
0.321201
0.243564
0.187217
0.139128
0.156538
61.0277
61.5013
88.5869
156.994
166.141
22.0117
-146.334
-59.6499
-34.7563
-23.5582
-18.0337
-13.9987
-8.82444
-3.34555
0.386583
2.22898
3.06456
3.21083
1.96711
1.35792
0.981725
0.72007
0.534497
0.401312
0.304009
0.231545
0.178791
0.133957
0.154308
46.5522
45.4897
50.28
72.5375
57.6543
-1.2563
-59.277
-59.6509
-38.2917
-25.1218
-17.7665
-13.203
-9.19876
-4.97336
-1.35239
0.976322
2.13637
2.55908
2.51406
1.71474
1.19546
0.880621
0.654435
0.49061
0.371215
0.28296
0.216684
0.168283
0.126893
0.150098
33.501
32.5278
31.6532
27.7738
14.9094
-3.50444
-27.7241
-27.9982
-21.0802
-15.0136
-10.9341
-7.77837
-4.75917
-1.93498
0.112411
1.24455
1.73634
1.82486
1.60316
1.32702
1.00791
0.766175
0.581191
0.441804
0.337531
0.259211
0.199738
0.156096
0.118175
0.143464
23.0453
21.9005
19.9052
15.6267
7.39857
-7.36649
-15.4911
-17.851
-14.2312
-10.7164
-8.01776
-5.7156
-3.49571
-1.40721
0.169303
1.0665
1.43641
1.48226
1.31779
1.08453
0.851962
0.660967
0.509291
0.391893
0.302236
0.233931
0.181458
0.142688
0.108088
0.134046
15.439
14.2457
12.0615
7.76641
1.90806
-5.86373
-10.5085
-11.6831
-9.89024
-7.79203
-5.8944
-4.15774
-2.5145
-1.01686
0.140162
0.840864
1.14508
1.18586
1.06833
0.892531
0.715063
0.563298
0.43972
0.342115
0.266334
0.207871
0.162411
0.128477
0.0969889
0.121755
10.2669
9.03446
6.82548
3.02836
-1.20835
-5.58657
-8.01068
-8.46727
-7.3616
-5.92569
-4.50832
-3.16752
-1.91568
-0.806681
0.0539279
0.60246
0.864039
0.918428
0.84582
0.720913
0.588303
0.470249
0.371742
0.292499
0.230061
0.181306
0.142881
0.113755
0.0852681
0.106838
7.03056
5.7228
3.50364
0.291189
-2.7539
-5.3382
-6.60108
-6.66952
-5.8509
-4.77604
-3.67279
-2.61003
-1.6266
-0.768549
-0.0993396
0.346656
0.583696
0.660269
0.632707
0.55533
0.463913
0.37766
0.303215
0.241947
0.192835
0.153934
0.122754
0.0985795
0.0732812
0.0898637
5.25968
3.85328
1.6374
-1.02385
-3.24839
-4.86985
-5.57807
-5.51
-4.89388
-4.07419
-3.20449
-2.35143
-1.55884
-0.867136
-0.318546
0.0658426
0.294866
0.398896
0.416334
0.385653
0.334908
0.280829
0.231057
0.188422
0.15327
0.124796
0.101402
0.0826348
0.0612342
0.0716511
4.52247
3.04126
0.922036
-1.22832
-2.92081
-4.08638
-4.61612
-4.60431
-4.20673
-3.62226
-2.96068
-2.28538
-1.64062
-1.06589
-0.594651
-0.243514
-0.00914621
0.126652
0.189201
0.205121
0.195723
0.175268
0.151758
0.129203
0.109246
0.0922335
0.0775659
0.0650683
0.0490051
0.0531344
4.42222
2.97183
1.1237
-0.578003
-1.9669
-2.99299
-3.57863
-3.75815
-3.6212
-3.2861
-2.83609
-2.33033
-1.81558
-1.33312
-0.915231
-0.580219
-0.331514
-0.160803
-0.0529787
0.00951559
0.0422751
0.0570742
0.0617384
0.0611118
0.0579861
0.0538498
0.0492302
0.0442794
0.0358544
0.035147
4.55988
3.36184
1.95253
0.604632
-0.637747
-1.68997
-2.44949
-2.89217
-3.04846
-2.98334
-2.75857
-2.42802
-2.04103
-1.64192
-1.26668
-0.939491
-0.67197
-0.465073
-0.312485
-0.204008
-0.128896
-0.0777631
-0.0433115
-0.0202096
-0.00473432
0.00565123
0.0127059
0.0169707
0.019192
0.0175027
4.53347
3.86009
2.92333
1.84896
0.708409
-0.388563
-1.32305
-2.02195
-2.46339
-2.66705
-2.67092
-2.51996
-2.26227
-1.9452
-1.6105
-1.29028
-1.00525
-0.765423
-0.572422
-0.422249
-0.30821
-0.223029
-0.160027
-0.113647
-0.0794564
-0.0540955
-0.0346199
-0.0198283
-0.00500001
-0.00198225
4.42997
4.14627
3.55111
2.6966
1.67955
0.606096
-0.407695
-1.26324
-1.90302
-2.31227
-2.50525
-2.51342
-2.37852
-2.14678
-1.86276
-1.56412
-1.27853
-1.02313
-0.805881
-0.6278
-0.485694
-0.374365
-0.288135
-0.221759
-0.170637
-0.131072
-0.0994239
-0.073914
-0.0454185
-0.0307922
83.7673
107.59
190.481
314.27
-62.3445
-41.1672
-28.2363
-22.4353
-18.3439
-11.2304
-3.5482
0.966811
2.8264
3.63355
3.90373
2.32443
1.56631
1.10711
0.799494
0.586903
0.436999
0.328912
0.248912
0.191691
0.136477
0.169524
76.4461
89.7725
165.587
265.121
376.556
-65.8641
-39.8357
-27.2322
-21.4846
-17.7346
-11.6118
-4.49316
0.162149
2.33331
3.34251
3.62828
2.19932
1.49812
1.06759
0.775539
0.571396
0.426497
0.321572
0.243884
0.187487
0.139331
0.156756
65.5481
67.306
119.748
184.384
223.69
-63.3607
-36.6989
-24.8534
-19.2132
-15.3893
-10.1217
-4.19319
-0.0707528
2.02163
3.04094
3.33743
2.02751
1.39949
1.00831
0.737813
0.546488
0.409565
0.309793
0.235665
0.18157
0.136795
0.154494
52.5942
51.2211
62.7777
107.549
89.1792
18.5792
-97.1636
-95.7286
-53.0314
-31.7493
-21.5474
-16.2358
-12.3492
-7.82782
-3.16029
0.161047
1.92238
2.76735
2.94046
1.81321
1.26911
0.927992
0.685667
0.511628
0.385688
0.293108
0.223929
0.173271
0.131588
0.151814
40.2048
38.9004
39.9874
41.7979
44.8006
-2.37985
-43.2112
-46.8786
-33.0725
-22.5402
-16.1047
-11.9008
-8.25747
-4.53751
-1.34004
0.775453
1.87899
2.31176
2.29833
1.58553
1.11928
0.833096
0.623348
0.469549
0.356591
0.272621
0.209376
0.1629
0.124458
0.147072
29.1164
28.0061
26.7447
23.5339
10.3867
-8.16598
-22.092
-23.6392
-18.3552
-13.3695
-9.80406
-6.96769
-4.29347
-1.8074
0.0444091
1.10749
1.58034
1.6735
1.47932
1.23581
0.947942
0.725985
0.553697
0.422612
0.323908
0.249418
0.192723
0.150846
0.115655
0.139908
20.2098
19.1134
17.188
12.8483
4.9629
-6.05256
-13.7818
-15.3365
-12.6408
-9.71098
-7.29916
-5.20228
-3.20307
-1.33882
0.0944729
0.941231
1.30714
1.36458
1.22141
1.01365
0.802405
0.626125
0.484632
0.374228
0.289438
0.224584
0.174678
0.137548
0.105473
0.13003
13.6569
12.5821
10.5597
6.49168
0.934892
-5.50551
-9.57599
-10.4847
-9.05941
-7.22707
-5.49434
-3.89073
-2.38008
-1.01097
0.0579267
0.724857
1.03059
1.08657
0.989113
0.833346
0.672114
0.532153
0.417084
0.32554
0.254112
0.19882
0.155778
0.12341
0.0942736
0.117402
9.17043
8.08093
6.07134
2.53948
-1.43674
-5.2807
-7.46751
-7.84611
-6.9028
-5.61017
-4.29855
-3.04639
-1.87793
-0.843387
-0.0336143
0.495087
0.760398
0.829762
0.775572
0.667909
0.549107
0.441301
0.350313
0.276549
0.218137
0.17238
0.136286
0.108715
0.0824487
0.102315
6.36441
5.2086
3.18939
0.199982
-2.66251
-5.01604
-6.20676
-6.28363
-5.56961
-4.59134
-3.56513
-2.56684
-1.6392
-0.826969
-0.187061
0.248541
0.490376
0.580112
0.568525
0.506133
0.426909
0.349916
0.282378
0.226235
0.180958
0.144965
0.116087
0.0935106
0.0703552
0.085362
4.84762
3.59543
1.56485
-0.921903
-3.02816
-4.5546
-5.25706
-5.23086
-4.69624
-3.95159
-3.14377
-2.34174
-1.5903
-0.929673
-0.399624
-0.0209596
0.2126
0.327315
0.357818
0.339733
0.299612
0.253883
0.210504
0.172719
0.141271
0.115659
0.0945716
0.077487
0.0581989
0.0673668
4.24687
2.91561
0.957185
-1.06397
-2.67895
-3.80452
-4.34853
-4.3822
-4.04868
-3.5244
-2.91421
-2.28126
-1.66993
-1.11937
-0.662294
-0.315829
-0.0786108
0.0648304
0.137214
0.163074
0.162485
0.149283
0.131538
0.113501
0.0970885
0.0828853
0.0705298
0.0598117
0.0458609
0.0492487
4.20783
2.89368
1.17275
-0.436983
-1.76929
-2.7696
-3.36475
-3.57689
-3.48524
-3.19563
-2.78677
-2.31623
-1.82997
-1.36852
-0.963795
-0.634625
-0.385854
-0.211034
-0.0968866
-0.0273856
0.012047
0.0326929
0.0422584
0.0456524
0.0458078
0.0443642
0.0420225
0.0389255
0.0326072
0.0318014
4.36596
3.27472
1.95449
0.673051
-0.520202
-1.54255
-2.29555
-2.75029
-2.93084
-2.8947
-2.69938
-2.39643
-2.03346
-1.65352
-1.29188
-0.972778
-0.708591
-0.501431
-0.346228
-0.233907
-0.154559
-0.0993151
-0.0611277
-0.0347496
-0.0164463
-0.00362573
0.00556936
0.0116784
0.0159216
0.0147993
4.35498
3.73941
2.85786
1.83313
0.737869
-0.322203
-1.23337
-1.92321
-2.36769
-2.58263
-2.6027
-2.47031
-2.23139
-1.93141
-1.61077
-1.30092
-1.02256
-0.786193
-0.594167
-0.443276
-0.327515
-0.240123
-0.17476
-0.126068
-0.0897085
-0.0623577
-0.0410452
-0.0245846
-0.00795465
-0.00392495
4.26409
4.00253
3.43903
2.62059
1.64222
0.606848
-0.374706
-1.2074
-1.83466
-2.24054
-2.4374
-2.45469
-2.3321
-2.11381
-1.84262
-1.55492
-1.27776
-1.0282
-0.814468
-0.638082
-0.496371
-0.384599
-0.297432
-0.229871
-0.177463
-0.1366
-0.103666
-0.0769269
-0.0470944
-0.0316406
66.5272
69.2448
108.595
182.159
203.846
-156.862
-62.2298
-36.0436
-24.5184
-18.8935
-14.4876
-8.59578
-2.68427
1.00688
2.64238
3.32401
3.454
2.07686
1.42023
1.01873
0.743009
0.549812
0.411996
0.311683
0.236969
0.183377
0.131514
0.167508
61.0297
61.518
88.6987
157.344
166.623
23.6201
-143.193
-59.883
-34.7817
-23.5297
-18.0104
-13.9834
-8.8179
-3.34351
0.384464
2.22399
3.05824
3.20527
1.96647
1.35843
0.982617
0.721008
0.535389
0.402122
0.304725
0.232162
0.179308
0.134337
0.154741
52.5947
51.2186
62.7849
107.67
89.462
18.1622
-96.9147
-96.2817
-53.1428
-31.7717
-21.5404
-16.2268
-12.3431
-7.82292
-3.15766
0.16034
1.91943
2.76368
2.93752
1.81291
1.26933
0.928408
0.686115
0.512059
0.386082
0.293458
0.224229
0.17352
0.131768
0.15203
42.5852
40.8444
41.6105
47.2915
53.3212
-1.64502
-59.7769
-62.5255
-42.0586
-27.0685
-18.7136
-13.8872
-10.1775
-6.25376
-2.45943
0.266364
1.76235
2.47889
2.57886
1.6227
1.15211
0.854952
0.637769
0.479303
0.363374
0.277426
0.212844
0.165367
0.126506
0.148689
32.6577
31.2912
29.8761
28.337
13.6181
-4.12162
-28.5854
-33.7691
-26.5044
-19.1405
-13.9716
-10.2757
-7.01939
-3.81651
-1.10278
0.709127
1.66968
2.04771
2.02243
1.42405
1.01855
0.768114
0.579755
0.439558
0.33554
0.257622
0.198646
0.155129
0.1193
0.14319
23.8446
22.7296
20.9175
17.1137
7.26196
-7.04563
-17.0023
-18.5319
-15.1706
-11.4667
-8.51102
-6.03723
-3.72118
-1.59624
0.017089
0.975083
1.4084
1.49522
1.32843
1.11747
0.866505
0.669885
0.514541
0.394909
0.304042
0.235028
0.182289
0.143173
0.110412
0.135257
16.7323
15.7444
13.8693
9.81179
2.9472
-5.51831
-11.4688
-12.6705
-10.8364
-8.5306
-6.46494
-4.61062
-2.85511
-1.24129
0.016273
0.789283
1.14202
1.2108
1.09379
0.917277
0.733091
0.576397
0.448851
0.348282
0.270459
0.210618
0.164424
0.129912
0.100146
0.124686
11.4382
10.5246
8.72816
5.04883
0.129892
-5.09024
-8.41305
-9.13032
-8.06079
-6.53464
-5.00991
-3.57109
-2.21826
-1.00161
-0.0441937
0.573348
0.87551
0.949198
0.878159
0.749276
0.610087
0.48654
0.383507
0.300699
0.235634
0.185038
0.145551
0.115736
0.0888704
0.111516
7.79105
6.88335
5.1413
1.96632
-1.58399
-4.8553
-6.73977
-7.07211
-6.31713
-5.20488
-4.03331
-2.89648
-1.83305
-0.891804
-0.148407
0.350811
0.617316
0.70464
0.674783
0.590691
0.491172
0.397985
0.31789
0.252188
0.199772
0.158529
0.125925
0.100917
0.0769811
0.0960981
5.51844
4.55379
2.79942
0.106232
-2.48824
-4.57753
-5.66711
-5.77298
-5.19136
-4.34075
-3.41903
-2.50795
-1.6545
-0.903182
-0.303702
0.115238
0.360641
0.466267
0.475601
0.433635
0.371523
0.307842
0.250417
0.2019
0.1624
0.130836
0.10545
0.0855126
0.0648354
0.0790623
4.31846
3.26069
1.47602
-0.777452
-2.71561
-4.12591
-4.81528
-4.84797
-4.41905
-3.77526
-3.05224
-2.3206
-1.62639
-1.00949
-0.5069
-0.138786
0.0983329
0.225732
0.27308
0.271965
0.246632
0.212846
0.178806
0.148238
0.122378
0.101139
0.0835715
0.0692359
0.0526385
0.0612452
3.88631
2.74559
1.0023
-0.844022
-2.3493
-3.42104
-3.97901
-4.07175
-3.82176
-3.37846
-2.83875
-2.26474
-1.70084
-1.1855
-0.750396
-0.413063
-0.174397
-0.022337
0.0623794
0.101368
0.11284
0.109862
0.10044
0.0890581
0.0779526
0.0680136
0.0591779
0.0513087
0.0402752
0.0435536
3.92032
2.78027
1.23138
-0.251717
-1.50377
-2.46624
-3.06937
-3.32213
-3.28906
-3.06022
-2.70749
-2.28586
-1.84006
-1.4094
-1.02507
-0.706342
-0.459672
-0.280948
-0.159321
-0.0808864
-0.0325599
-0.00386087
0.0126347
0.0218386
0.0268196
0.0293952
0.0304806
0.0302654
0.0270243
0.0267399
4.10096
3.14651
1.94781
0.758884
-0.365103
-1.34386
-2.08397
-2.55164
-2.76249
-2.76435
-2.60871
-2.34367
-2.01442
-1.66211
-1.32084
-1.01471
-0.756878
-0.550871
-0.393238
-0.276427
-0.191721
-0.131032
-0.0877326
-0.0567565
-0.0344027
-0.0180365
-0.00568366
0.00319574
0.0104852
0.0105456
4.10765
3.56797
2.76137
1.80545
0.773393
-0.234435
-1.11126
-1.78625
-2.23279
-2.46172
-2.50314
-2.39587
-2.18282
-1.90683
-1.60637
-1.31184
-1.04379
-0.813245
-0.623471
-0.472299
-0.35467
-0.264555
-0.196115
-0.144302
-0.104941
-0.0747833
-0.0508336
-0.0319515
-0.0126201
-0.00705539
4.0339
3.80211
3.28107
2.51241
1.58795
0.605685
-0.330536
-1.13068
-1.73966
-2.14011
-2.34176
-2.37127
-2.26546
-2.06569
-1.81233
-1.54005
-1.27495
-1.03392
-0.825504
-0.651858
-0.511006
-0.398841
-0.310521
-0.241393
-0.187227
-0.144552
-0.109786
-0.0812793
-0.0494904
-0.0328913
50.5749
49.4553
57.8204
84.0268
67.7288
8.91825
-67.9643
-66.9755
-41.0981
-26.5129
-18.7365
-13.9404
-9.52447
-4.82212
-0.966912
1.35801
2.42176
2.76199
2.65598
1.80844
1.2497
0.914067
0.675643
0.50513
0.381581
0.290556
0.222155
0.17297
0.124721
0.163409
46.5509
45.4782
50.2878
72.6722
57.7568
7.90741
-59.8851
-59.8608
-38.4948
-25.1633
-17.7714
-13.2113
-9.19773
-4.9657
-1.3452
0.977509
2.12726
2.54909
2.50749
1.71466
1.19644
0.88199
0.655838
0.491935
0.372419
0.284025
0.217599
0.169047
0.12745
0.150749
40.2033
38.8917
39.9741
41.8191
44.8952
-2.47218
-43.5749
-47.1053
-33.1768
-22.5745
-16.1188
-11.9118
-8.25896
-4.52992
-1.33114
0.77973
1.87448
2.30589
2.29415
1.58557
1.11992
0.833977
0.624259
0.470416
0.357382
0.273323
0.209978
0.163401
0.124817
0.147509
32.6565
31.2878
29.869
28.3274
13.6076
-4.18066
-28.6948
-33.8459
-26.5501
-19.1616
-13.9866
-10.2871
-7.02185
-3.81221
-1.09673
0.712995
1.66834
2.04539
2.02047
1.42421
1.01892
0.76856
0.580211
0.439992
0.335938
0.257976
0.198949
0.155382
0.11948
0.14341
25.1986
24.0463
22.1576
18.5327
8.03257
-4.68366
-18.2003
-22.6718
-19.6004
-15.152
-11.4137
-8.42574
-5.7321
-3.15574
-0.982182
0.500487
1.31156
1.63414
1.63344
1.25406
0.903782
0.690702
0.526881
0.402735
0.309411
0.238845
0.185075
0.145243
0.112181
0.137058
18.5776
17.63
15.8126
11.8856
4.24008
-6.19226
-12.6392
-13.9785
-12.0209
-9.42164
-7.09026
-5.02595
-3.09841
-1.35606
-0.013278
0.813356
1.19792
1.27894
1.1491
0.982698
0.771108
0.602077
0.466395
0.360429
0.279066
0.216794
0.168943
0.133321
0.103192
0.12828
13.1886
12.3878
10.7379
7.04969
1.44893
-5.0237
-9.24936
-10.235
-9.04538
-7.29777
-5.59186
-4.00473
-2.50717
-1.14955
-0.0807105
0.604247
0.938512
1.02164
0.938986
0.801996
0.649087
0.51504
0.404088
0.31547
0.246249
0.19268
0.151141
0.120005
0.0928272
0.11697
9.13938
8.42334
6.92321
3.67876
-0.458072
-4.61974
-7.1955
-7.78947
-7.01718
-5.78918
-4.4923
-3.23779
-2.0572
-1.00145
-0.164201
0.394881
0.688919
0.781563
0.742029
0.645703
0.532894
0.429094
0.340761
0.26879
0.211726
0.167099
0.132142
0.105671
0.0814637
0.103259
6.34268
5.63836
4.19967
1.42107
-1.6387
-4.36356
-5.93418
-6.24476
-5.67258
-4.75164
-3.73908
-2.73563
-1.79031
-0.952079
-0.282353
0.181593
0.446465
0.552564
0.550545
0.4943
0.417981
0.342654
0.27607
0.220515
0.175738
0.140305
0.112203
0.0905947
0.0695032
0.0875664
4.61812
3.8622
2.40019
0.0391171
-2.24764
-4.06978
-5.04934
-5.19639
-4.75508
-4.04714
-3.2471
-2.43873
-1.67191
-0.990839
-0.438632
-0.04086
0.206154
0.328266
0.361041
0.342824
0.30117
0.25376
0.208926
0.170054
0.137954
0.112123
0.0912724
0.0748516
0.0573053
0.0705618
3.74466
2.89908
1.38738
-0.601665
-2.34401
-3.62921
-4.3007
-4.40036
-4.08753
-3.55896
-2.93582
-2.28803
-1.66238
-1.09801
-0.629361
-0.275944
-0.0371334
0.103114
0.168984
0.187307
0.179449
0.160139
0.137661
0.116186
0.0974645
0.0818769
0.0688843
0.0582028
0.0450791
0.0530909
3.48388
2.55274
1.05173
-0.593768
-1.96912
-2.9774
-3.54589
-3.70277
-3.54534
-3.19497
-2.73822
-2.23465
-1.72815
-1.25611
-0.84913
-0.525027
-0.287052
-0.126812
-0.0289224
0.0248105
0.050308
0.0595496
0.0603074
0.05722
0.0528318
0.0483595
0.044073
0.0399563
0.0327224
0.0360412
3.58859
2.64181
1.28941
-0.046122
-1.20177
-2.11645
-2.72305
-3.01808
-3.04933
-2.88975
-2.60264
-2.23922
-1.84235
-1.44972
-1.09154
-0.787385
-0.545347
-0.363829
-0.234712
-0.146575
-0.0881497
-0.0500124
-0.0251893
-0.00885964
0.00213962
0.00979766
0.0152619
0.0187882
0.0195449
0.020113
3.78827
2.98682
1.92833
0.84842
-0.192113
-1.11638
-1.83671
-2.31504
-2.55778
-2.60215
-2.49234
-2.27203
-1.98328
-1.66481
-1.3492
-1.06017
-0.811595
-0.608477
-0.449175
-0.327903
-0.237379
-0.170495
-0.121197
-0.0846995
-0.0573916
-0.0366243
-0.0203037
-0.00789438
0.00330322
0.00501556
3.81273
3.35817
2.63852
1.76411
0.807953
-0.136152
-0.969564
-1.62394
-2.07016
-2.31362
-2.37911
-2.30109
-2.11874
-1.8717
-1.59605
-1.3208
-1.06616
-0.843643
-0.657498
-0.506741
-0.387424
-0.294412
-0.222496
-0.167034
-0.124082
-0.090505
-0.063296
-0.0413834
-0.0186437
-0.0110467
3.75763
3.55957
3.08812
2.37883
1.51916
0.601016
-0.279948
-1.03979
-1.62546
-2.01814
-2.22461
-2.26817
-2.18215
-2.00455
-1.77281
-1.51944
-1.26939
-1.03919
-0.837749
-0.667887
-0.52845
-0.416082
-0.326543
-0.255614
-0.199353
-0.154468
-0.117433
-0.086712
-0.0524736
-0.0343698
36.2303
35.3431
35.1662
32.9865
18.4245
-4.71584
-31.4996
-31.1839
-22.925
-16.0616
-11.6821
-8.33718
-5.08301
-1.98505
0.219811
1.37843
1.85982
1.93538
1.68698
1.38717
1.04722
0.793307
0.599997
0.455324
0.347499
0.266694
0.205234
0.160867
0.116339
0.156674
33.4972
32.5171
31.6383
27.7848
14.9265
-4.08186
-28.077
-28.1382
-21.1418
-15.0302
-10.9373
-7.77749
-4.75776
-1.93492
0.109927
1.24023
1.73154
1.82142
1.60132
1.32791
1.00959
0.768051
0.583053
0.44355
0.339116
0.260616
0.200946
0.157105
0.118903
0.144322
29.1123
27.9975
26.7287
23.5203
10.3719
-8.28589
-22.2132
-23.7244
-18.3922
-13.3822
-9.80818
-6.9682
-4.29192
-1.80594
0.0442682
1.10574
1.5778
1.67166
1.47824
1.23653
0.94917
0.727346
0.555063
0.423904
0.325086
0.250465
0.193624
0.151595
0.116189
0.140555
23.8407
22.7235
20.9075
17.0985
7.24144
-7.10342
-17.0616
-18.5735
-15.1903
-11.475
-8.51518
-6.03823
-3.72035
-1.59518
0.0174204
0.974475
1.40726
1.49437
1.32784
1.11804
0.86733
0.670779
0.515441
0.395765
0.304826
0.235727
0.182891
0.143675
0.110769
0.135691
18.5754
17.627
15.8082
11.8791
4.23087
-6.21255
-12.6592
-13.9934
-12.0288
-9.42545
-7.09222
-5.02696
-3.09904
-1.35662
-0.0139225
0.812543
1.19707
1.27826
1.14856
0.98293
0.771503
0.602509
0.466834
0.360847
0.279451
0.217139
0.169241
0.133569
0.103368
0.128493
13.8498
13.09
11.489
7.79878
1.86684
-5.26394
-9.55222
-10.538
-9.29946
-7.46606
-5.69205
-4.05916
-2.52949
-1.15227
-0.0741098
0.614493
0.95043
1.0337
0.948706
0.818814
0.661218
0.524571
0.411226
0.320675
0.250042
0.19545
0.153196
0.121591
0.0942705
0.118898
9.96257
9.3501
7.9855
4.72493
0.230993
-4.54213
-7.48037
-8.20308
-7.40263
-6.09336
-4.72382
-3.40881
-2.17019
-1.05891
-0.177425
0.409362
0.716859
0.81331
0.769843
0.671362
0.552772
0.444345
0.352133
0.277087
0.217722
0.171414
0.135294
0.108112
0.0838011
0.106912
7.02157
6.49395
5.29076
2.49401
-0.905877
-4.14891
-6.10513
-6.58439
-6.02803
-5.0591
-3.98478
-2.91903
-1.91098
-1.01175
-0.29192
0.205174
0.486386
0.596368
0.589732
0.527364
0.443657
0.362113
0.29049
0.230979
0.183217
0.145597
0.115987
0.0935009
0.0723474
0.0927618
4.99467
4.48225
3.33325
0.954265
-1.62529
-3.8568
-5.14977
-5.44585
-5.03076
-4.29162
-3.44122
-2.57783
-1.75475
-1.02073
-0.425401
0.000780964
0.261033
0.384449
0.410708
0.383714
0.332864
0.277614
0.226463
0.182666
0.14685
0.1183
0.0955615
0.0780473
0.0603197
0.076935
3.77013
3.21266
2.03117
0.00520479
-1.97032
-3.5393
-4.41566
-4.60547
-4.29694
-3.73265
-3.06098
-2.36278
-1.68896
-1.08225
-0.580648
-0.207165
0.0388278
0.176016
0.232251
0.238805
0.219342
0.190086
0.159595
0.131897
0.108489
0.0894636
0.0740341
0.0618658
0.0480842
0.0601395
3.19283
2.55188
1.30783
-0.411496
-1.94994
-3.10866
-3.75905
-3.92419
-3.72579
-3.31621
-2.79994
-2.24336
-1.69292
-1.1864
-0.756099
-0.420969
-0.183135
-0.0315463
0.0525155
0.0908611
0.101701
0.0983504
0.0889188
0.0779004
0.0675153
0.0586053
0.0510637
0.0447869
0.0358602
0.0432252
3.08283
2.3567
1.09894
-0.338284
-1.57461
-2.51298
-3.08585
-3.30381
-3.23842
-2.98446
-2.61649
-2.18977
-1.74677
-1.32341
-0.949139
-0.641975
-0.407423
-0.24068
-0.130287
-0.0616686
-0.0214219
0.00108027
0.013163
0.0194943
0.0228594
0.0247807
0.0258677
0.026234
0.0235682
0.0270529
3.24388
2.48854
1.33733
0.157594
-0.892699
-1.75176
-2.35499
-2.68819
-2.78261
-2.69429
-2.47686
-2.17661
-1.8338
-1.48401
-1.15627
-0.870263
-0.635592
-0.453114
-0.317496
-0.219937
-0.151162
-0.102995
-0.0690776
-0.0447941
-0.0269575
-0.0134428
-0.00287409
0.00506093
0.0105661
0.0122668
3.4538
2.80524
1.89231
0.929026
-0.0197728
-0.881597
-1.57511
-2.05914
-2.33134
-2.41837
-2.35652
-2.18423
-1.93982
-1.65913
-1.37292
-1.10426
-0.867591
-0.669311
-0.509599
-0.384523
-0.288357
-0.215111
-0.159429
-0.116901
-0.0840736
-0.058325
-0.0374533
-0.0209534
-0.00518686
-0.00144691
3.49251
3.12346
2.49483
1.70821
0.835255
-0.0376927
-0.820813
-1.44911
-1.89147
-2.14802
-2.23797
-2.19091
-2.0418
-1.8267
-1.57891
-1.3258
-1.08702
-0.874479
-0.693369
-0.543929
-0.423407
-0.327651
-0.252178
-0.19283
-0.145951
-0.108565
-0.0776702
-0.0522914
-0.0256278
-0.0156248
3.45527
3.29135
2.87235
2.22745
1.4389
0.59159
-0.227661
-0.941697
-1.5
-1.88255
-2.0931
-2.15127
-2.08657
-1.93324
-1.72548
-1.4934
-1.26054
-1.04299
-0.849904
-0.684806
-0.5474
-0.435148
-0.344481
-0.271679
-0.21314
-0.165786
-0.126175
-0.0929025
-0.0558694
-0.0359544
24.7979
23.6587
21.8427
17.9918
9.30499
-7.74074
-17.0216
-19.6414
-15.2704
-11.4001
-8.52626
-6.0889
-3.7261
-1.47138
0.226046
1.16639
1.53535
1.56969
1.38694
1.13274
0.884943
0.684647
0.526453
0.40463
0.311865
0.241312
0.186974
0.147523
0.106671
0.146851
23.0372
21.8886
19.8872
15.6085
7.37376
-7.47691
-15.5788
-17.9247
-14.2667
-10.7276
-8.01995
-5.71414
-3.49425
-1.40763
0.16723
1.06408
1.43463
1.48163
1.31835
1.0864
0.854222
0.663304
0.511567
0.39402
0.304171
0.235651
0.182941
0.14393
0.108979
0.135089
20.2021
19.1028
17.1725
12.8271
4.93756
-6.12834
-13.8511
-15.3895
-12.6657
-9.72025
-7.30151
-5.20151
-3.20154
-1.33818
0.0939442
0.9402
1.30626
1.36436
1.22194
1.0151
0.804135
0.627927
0.486407
0.375901
0.290968
0.225948
0.175856
0.138533
0.106174
0.130865
16.7255
15.7359
13.8576
9.79563
2.92593
-5.56248
-11.5096
-12.7008
-10.8513
-8.53653
-6.46662
-4.61036
-2.85443
-1.24095
0.0161547
0.78894
1.14174
1.21092
1.09438
0.918345
0.73434
0.577704
0.450149
0.349513
0.271592
0.211633
0.165302
0.130649
0.100669
0.125311
13.1839
12.3822
10.7306
7.04017
1.43688
-5.0448
-9.26885
-10.2499
-9.05357
-7.30154
-5.59335
-4.00507
-2.50702
-1.14931
-0.0805739
0.604264
0.938522
1.02183
0.939294
0.802661
0.649871
0.515864
0.404913
0.316259
0.246979
0.193338
0.151713
0.120486
0.0931685
0.117376
9.96012
9.34739
7.9823
4.72089
0.226091
-4.54955
-7.48731
-8.20855
-7.40587
-6.09488
-4.72437
-3.40886
-2.17007
-1.05879
-0.177356
0.409401
0.716918
0.813442
0.770067
0.67169
0.553134
0.444723
0.352513
0.277454
0.218065
0.171725
0.135566
0.108342
0.083965
0.107105
7.28288
6.81721
5.69972
2.90393
-0.619382
-4.06455
-6.16702
-6.71329
-6.1635
-5.17596
-4.07931
-2.99144
-1.96075
-1.03889
-0.300112
0.20976
0.4977
0.609905
0.602237
0.538223
0.452083
0.368598
0.295363
0.234564
0.185821
0.147477
0.117362
0.0945806
0.0733972
0.0946166
5.24995
4.87133
3.90864
1.54171
-1.20343
-3.69027
-5.18611
-5.58518
-5.19504
-4.443
-3.56671
-2.67333
-1.81844
-1.05314
-0.431643
0.0124851
0.282206
0.408356
0.432666
0.402277
0.347376
0.288625
0.234597
0.188525
0.150981
0.121166
0.0975631
0.079579
0.0618654
0.0802295
3.8605
3.50437
2.59207
0.584719
-1.55681
-3.36496
-4.43211
-4.72232
-4.44177
-3.86765
-3.17083
-2.44223
-1.73605
-1.09885
-0.572049
-0.181547
0.0728137
0.211279
0.26393
0.265115
0.239864
0.205519
0.170859
0.139888
0.114004
0.0931742
0.0765035
0.0636567
0.0497914
0.0644953
3.04973
2.65916
1.71566
0.00148624
-1.68131
-3.02154
-3.80683
-4.03644
-3.84755
-3.41936
-2.87395
-2.28579
-1.70512
-1.17213
-0.721105
-0.373283
-0.13081
0.0188729
0.0966581
0.127058
0.129875
0.119486
0.104299
0.0887785
0.0749939
0.0635983
0.0543009
0.0469851
0.0375537
0.0481524
2.71266
2.24903
1.24212
-0.222684
-1.56353
-2.59995
-3.22608
-3.44897
-3.35576
-3.06087
-2.65127
-2.18752
-1.71438
-1.2678
-0.878194
-0.56413
-0.330231
-0.169919
-0.0695548
-0.0121767
0.0172258
0.0302744
0.0346215
0.0348899
0.0336579
0.0321792
0.0307652
0.0294864
0.0253889
0.032047
2.71763
2.17352
1.13924
-0.0974373
-1.19497
-2.06001
-2.62953
-2.89983
-2.91901
-2.75799
-2.47858
-2.13034
-1.75322
-1.38133
-1.04273
-0.755594
-0.527419
-0.356671
-0.235605
-0.153177
-0.0985564
-0.062654
-0.0387975
-0.0224483
-0.0106844
-0.00173598
0.00532474
0.0107229
0.0132516
0.0170063
2.91279
2.33055
1.36929
0.342735
-0.599891
-1.39804
-1.99007
-2.35346
-2.50468
-2.48426
-2.33572
-2.09958
-1.81272
-1.50824
-1.2137
-0.948679
-0.724038
-0.542863
-0.402458
-0.296594
-0.218032
-0.159961
-0.116776
-0.084186
-0.0590689
-0.0392196
-0.02306
-0.0102476
0.000565414
0.00361403
3.12072
2.6122
1.83917
0.992336
0.137985
-0.656686
-1.31711
-1.80041
-2.09681
-2.22325
-2.20802
-2.0839
-1.88497
-1.64387
-1.38923
-1.14326
-0.920699
-0.729178
-0.570578
-0.442777
-0.341627
-0.262327
-0.200307
-0.151615
-0.113022
-0.0819812
-0.0562095
-0.0352566
-0.0144884
-0.00846255
3.16791
2.87751
2.33725
1.63891
0.851386
0.0530123
-0.675464
-1.2731
-1.70761
-1.97442
-2.0873
-2.0708
-1.95538
-1.77329
-1.55485
-1.32557
-1.10437
-0.903354
-0.728574
-0.581442