/*--------------------------------*- C++ -*----------------------------------*\
  =========                 |
  \\      /  F ield         | OpenFOAM: The Open Source CFD Toolbox
   \\    /   O peration     | Website:  https://openfoam.org
    \\  /    A nd           | Version:  7
     \\/     M anipulation  |
\*---------------------------------------------------------------------------*/
FoamFile
{
    version     2.0;
    format      ascii;
    class       surfaceScalarField;
    location    "100";
    object      phi;
}
// * * * * * * * * * * * * * * * * * * * * * * * * * * * * * * * * * * * * * //

dimensions      [0 3 -1 0 0 0 0];

internalField   nonuniform List<scalar> 
81175
(
525.04
8.76777
8.72845
113.166
32.2649
32.1468
115.155
115.311
116.997
93.498
9.84623
9.82204
-14.6296
3.03737
3.45903
1.99814
2.18208
1.71063
2.24238
2.24254
-0.787857
-0.921517
-0.533231
-7.52048
-1.35489
-1.42915
10.3045
-17.9585
20.2464
-1.13407
-1.15389
-26.1413
27.6857
-0.769454
-0.774953
-30.8556
31.5015
-0.321879
-0.324098
-32.697
32.938
-0.119701
-0.121245
-33.4096
33.5123
-0.0507653
-0.051933
-33.7256
33.7745
-0.0240022
-0.0248721
-33.8776
33.9009
-0.0112827
-0.0119304
-33.943
135.814
-0.0351231
-0.0383505
-33.9351
-33.9351
-33.9269
543.67
-0.189405
-0.204941
-135.862
-135.819
-135.819
-135.776
543.968
-0.142381
-0.154891
544.214
-0.11789
-0.128718
544.43
-0.102864
-0.112615
544.622
-0.0918564
-0.100826
544.796
-0.0828254
-0.0911778
544.954
-0.0750761
-0.0829072
545.099
-0.0685973
-0.0759653
545.233
-0.0632694
-0.070222
545.362
-0.061416
-0.0680052
-0.0561045
-0.0624669
529.695
14.4573
7.60644
118.554
50.7253
27.1257
122.242
120.039
123.273
-17.9362
104.546
23.6268
8.31766
-11.014
-19.6533
13.0922
2.57125
3.89309
3.58208
3.63058
3.89805
-3.32176
4.56166
-6.48283
-1.2251
6.46788
-14.329
5.03671
-1.21213
-5.89341
16.3977
3.91193
-21.6363
23.1534
-4.50807
-0.920938
2.70895
-27.1132
28.2133
-3.15342
-0.655603
1.24212
-30.7324
31.3183
-1.50278
-0.32531
0.49266
-32.5005
32.7562
-0.614559
-0.133834
0.214986
-33.2752
33.3914
-0.272369
-0.0588109
0.103046
-33.6364
33.6933
-0.13167
-0.0282545
0.0497803
-33.8149
33.8431
-0.0642883
-0.013628
-33.8987
0.0875909
135.666
-0.149806
-0.0440278
-33.8898
-33.89
-33.8809
543.283
-0.500347
-0.235912
-135.737
-135.676
-135.692
-135.631
543.677
-0.358255
-0.178535
543.99
-0.283904
-0.146439
544.252
-0.238779
-0.12593
544.478
-0.207137
-0.110856
544.676
-0.182594
-0.0988014
544.853
-0.162593
-0.0887829
545.011
-0.146283
-0.0805505
545.155
-0.133484
-0.0738509
545.29
-0.125576
-0.0711456
-0.120281
-0.0630929
535.587
16.5736
6.03363
126.045
54.5769
20.0378
129.131
126.838
129.684
-26.3411
119.534
26.979
5.87269
-14.8833
-27.0612
25.354
14.7909
1.79953
0.0181451
1.08794
-1.1579
0.0506422
-20.7474
9.84913
-9.61282
-1.13117
21.6421
6.80665
-23.8141
-0.775232
24.5041
-6.72139
5.32768
-26.5271
27.1759
-5.36303
-0.613407
3.90335
-29.0095
29.574
-4.00266
-0.46521
2.10195
-31.0659
31.477
-2.24417
-0.268942
0.95561
-32.4256
32.6568
-1.05944
-0.127314
0.448814
-33.161
33.281
-0.508642
-0.0601128
0.224295
-33.5437
33.6068
-0.25748
-0.0299005
0.113194
-33.7455
33.7784
-0.131336
-0.0148355
-33.8456
0.222817
135.474
-0.303564
-0.0508725
-33.8348
-33.8363
-33.8254
542.747
-0.93685
-0.283754
-135.566
-135.492
-135.521
-135.447
543.276
-0.672126
-0.215288
543.688
-0.52173
-0.173653
544.021
-0.426158
-0.145754
544.298
-0.359125
-0.125262
544.534
-0.308632
-0.109352
544.737
-0.269003
-0.0966072
544.914
-0.237547
-0.0864141
545.072
-0.2132
-0.078286
545.218
-0.196354
-0.0745024
-0.187271
-0.0650784
540.825
16.278
4.59143
530.942
50.2234
14.2372
129.668
97.4684
28.563
-26.484
-35.9882
-25.6111
-34.5374
133.605
130.431
133.826
-53.7856
131.688
44.3997
7.36601
-23.407
-34.0375
36.1808
19.4417
1.82196
4.7343
-4.80224
0.0679722
12.9403
-29.4684
28.8712
-11.3022
-1.04109
7.94127
-28.3355
-0.60514
28.3348
-7.33547
6.03207
-28.6348
28.8042
-5.73807
-0.463454
5.09024
-29.4191
29.6474
-4.92513
-0.39345
4.02047
-30.3753
30.6325
-3.96145
-0.316227
2.52835
-31.4352
31.6953
-2.58208
-0.206384
1.33748
-32.3935
32.5858
-1.41804
-0.111685
0.689172
-33.0476
33.1649
-0.748966
-0.0575435
0.363921
-33.4377
33.5055
-0.401537
-0.0302098
0.19185
-33.6616
33.6996
-0.214115
-0.0157572
-33.7807
0.395874
135.238
-0.497716
-0.060434
-33.7669
-33.7711
-33.7575
542.115
-1.52515
-0.348248
-135.36
-135.272
-135.316
-135.23
542.807
-1.10158
-0.263253
543.34
-0.845739
-0.208172
543.76
-0.676004
-0.170334
544.099
-0.555815
-0.142759
544.379
-0.466599
-0.121914
544.614
-0.398275
-0.105737
544.815
-0.345149
-0.0931162
544.989
-0.304329
-0.0832142
545.146
-0.274762
-0.0780801
-0.257921
-0.0673604
544.521
14.6038
3.37414
541.888
42.9876
9.86902
136.189
75.2477
17.6302
136.955
136.315
137.019
-36.35
138.398
30.3543
3.78652
-49.0858
149.533
37.5964
4.8527
-142.896
-10.8651
-39.6433
40.9371
0.580769
8.99055
-0.271216
-43.0947
42.5287
-0.0882969
0.925551
7.27727
-38.0661
141.906
-17.5358
-2.58286
7.63654
7.12865
7.52406
-38.1276
-37.5857
-37.5747
7.02242
-134.694
130.211
-20.0713
-2.69665
6.92554
6.69785
6.60525
5.59302
-127.52
126.136
-18.1191
-2.29972
5.37382
5.52587
5.30969
4.7917
-125.41
125.171
-16.5542
-2.04219
4.6819
4.73479
4.62696
4.30857
-125.175
125.396
-15.3047
-1.85001
4.20175
4.26211
4.16179
3.64794
-125.805
126.43
-13.2686
-1.56387
3.46665
3.63161
3.46097
2.61849
-127.294
128.319
-9.97528
-1.13454
2.40421
2.63597
2.42613
1.60041
-129.453
130.52
-6.49449
-0.710377
1.44436
1.62532
1.46779
0.912353
-131.52
132.34
-3.90741
-0.414456
0.821864
0.930026
0.837378
0.513832
-133.053
133.604
-2.2857
-0.238148
0.463061
0.524291
0.472085
0.285155
-134.072
134.426
-1.31167
-0.135785
0.256069
0.291131
0.261246
0.616398
-134.723
134.949
-0.762783
-0.0789533
541.446
-2.28933
-0.428224
-135.124
-135.038
-135.086
-135.005
542.325
-1.66164
-0.319297
542.987
-1.26078
-0.246955
543.499
-0.99014
-0.197368
543.903
-0.798082
-0.161764
544.229
-0.657021
-0.135431
544.497
-0.550785
-0.115477
544.721
-0.46939
-0.10021
544.912
-0.407114
-0.0883722
545.08
-0.360893
-0.0817585
-0.332292
-0.0696648
546.757
12.2926
2.40532
547.611
35.3083
6.82514
553.639
57.9524
11.2676
568.681
76.0528
14.9884
-25.5052
-28.2548
-24.8293
-27.4941
148.134
77.9651
15.525
-29.7075
-27.7275
-28.818
-26.9375
146.248
147.905
146.094
-22.2291
150.517
18.0705
1.77581
-4.35537
-151.019
149.44
5.49252
0.441035
557.472
-16.5677
-4.66285
10.3462
12.8057
9.7037
12.1547
-146.133
-144.676
-145.919
-144.525
539.463
-32.258
-7.2418
14.6979
14.6035
14.1076
14.0994
528.812
-39.1847
-7.98027
14.863
14.4749
14.4058
14.0705
522.857
-41.9627
-8.12855
14.366
14.0238
13.979
13.6768
519.827
-42.0061
-7.90448
13.6547
13.1071
13.3302
12.8477
519.486
-38.8411
-7.13734
12.1594
11.1586
11.9575
11.0437
521.946
-32.4109
-5.77608
9.55737
8.32413
9.51093
8.33418
526.173
-24.4142
-4.19905
6.58792
5.55328
6.63388
5.61077
530.622
-17.0183
-2.83872
4.16982
3.47608
4.23158
3.53064
534.382
-11.2952
-1.84425
2.53687
2.10892
2.58492
2.14816
537.265
-7.31046
-1.17689
1.51164
1.26061
1.5446
1.28748
539.352
-4.78318
-0.763562
0.912158
0.796501
0.934841
0.81679
540.844
-3.25969
-0.521632
541.903
-2.34285
-0.377853
542.683
-1.75512
-0.285875
543.275
-1.35785
-0.224031
543.735
-1.0777
-0.180437
544.101
-0.874088
-0.148725
544.398
-0.722542
-0.125082
544.643
-0.607571
-0.10723
544.849
-0.519787
-0.0934933
545.027
-0.453558
-0.0854061
-0.409587
-0.071952
547.908
9.8784
1.67578
550.337
28.1965
4.68303
555.937
44.937
7.4155
565.669
56.9205
9.4005
576.398
57.7369
9.49916
579.918
42.6959
6.59797
-15.1645
-11.4416
-14.9009
-11.307
573.526
19.405
2.53941
-5.7953
-1.90812
-5.80374
-2.04633
560.892
-2.68525
-1.24812
549.191
-17.1543
-3.40283
540.302
-25.7711
-4.52493
534.012
-30.5973
-5.07596
529.765
-32.5339
-5.2257
527.531
-31.6389
-4.9682
527.471
-28.05
-4.30111
529.218
-22.7656
-3.39629
531.887
-17.1896
-2.49733
534.665
-12.3205
-1.75267
537.112
-8.55903
-1.19859
539.069
-5.92041
-0.820178
540.558
-4.17146
-0.576685
541.666
-3.03085
-0.420328
542.498
-2.26945
-0.316963
543.132
-1.7456
-0.246481
543.625
-1.37418
-0.196693
544.016
-1.10455
-0.160589
544.332
-0.904694
-0.133832
544.592
-0.753698
-0.113756
544.809
-0.63833
-0.0983539
544.995
-0.550125
-0.0889302
-0.487994
-0.0742598
548.351
7.65446
1.15136
551.253
22.0845
3.20999
556.24
34.9603
4.99018
563.219
43.7696
6.17174
570.047
44.6858
6.22262
572.643
35.4087
4.69156
569.479
20.1684
2.40019
562.286
4.39614
0.112129
554.402
-7.77841
-1.49165
547.431
-16.2672
-2.53306
541.753
-21.7603
-3.15906
537.38
-24.7055
-3.45582
534.411
-25.2272
-3.44321
533.021
-23.5178
-3.1425
533.134
-20.2337
-2.64514
534.309
-16.2807
-2.08358
535.995
-12.4429
-1.56352
537.758
-9.18515
-1.13758
539.341
-6.68341
-0.81954
540.646
-4.88044
-0.596264
541.677
-3.61815
-0.442818
542.479
-2.73493
-0.33681
543.105
-2.10958
-0.262463
543.599
-1.659
-0.209131
543.994
-1.3293
-0.17017
544.315
-1.08412
-0.141224
544.579
-0.898641
-0.119507
544.8
-0.756457
-0.102833
544.989
-0.646433
-0.0923191
-0.564653
-0.0766958
548.402
5.74358
0.784586
551.259
17.0171
2.20998
555.567
27.2226
3.42996
560.924
34.1951
4.21718
565.87
35.4477
4.29235
568.124
29.7058
3.44868
566.778
19.4153
2.09912
562.588
7.93818
0.647955
557.285
-1.95966
-0.515885
551.995
-9.6035
-1.37277
547.216
-15.0291
-1.95307
543.157
-18.3595
-2.28717
540.032
-19.712
-2.39038
538.02
-19.2217
-2.28362
537.155
-17.3471
-2.02181
537.249
-14.692
-1.68269
537.978
-11.8365
-1.33554
539.015
-9.19666
-1.0256
540.106
-6.99995
-0.774841
541.106
-5.29526
-0.584907
541.957
-4.02281
-0.445632
542.655
-3.08874
-0.344592
543.221
-2.40455
-0.271143
543.679
-1.90015
-0.217162
544.053
-1.52558
-0.177106
544.36
-1.24445
-0.147068
544.617
-1.03056
-0.124416
544.833
-0.865704
-0.106957
545.019
-0.736762
-0.0956726
-0.635641
-0.0794557
548.253
4.15827
0.534424
550.838
12.8937
1.53798
554.532
21.1155
2.41347
558.879
26.8607
2.98712
562.852
28.3821
3.09294
565.043
24.8905
2.62476
564.817
17.8448
1.79623
562.484
9.42918
0.841872
558.978
1.54968
-0.00302532
555.05
-4.99229
-0.682956
551.154
-9.95091
-1.18268
547.606
-13.3057
-1.50569
544.595
-15.0426
-1.65881
542.343
-15.3134
-1.65605
540.931
-14.4031
-1.53226
540.303
-12.7286
-1.33558
540.289
-10.711
-1.1117
540.675
-8.68744
-0.894801
541.259
-6.87818
-0.705889
541.896
-5.37924
-0.55263
542.5
-4.19387
-0.433194
543.036
-3.28232
-0.342132
543.495
-2.59017
-0.273273
543.882
-2.06603
-0.221141
544.207
-1.6692
-0.181625
544.481
-1.36726
-0.151557
544.715
-1.13543
-0.128675
544.916
-0.955526
-0.11094
545.092
-0.813737
-0.0992287
-0.695923
-0.0828396
547.999
2.89521
0.366802
550.231
9.57068
1.09118
553.406
16.1909
1.74881
557.108
20.9629
2.19622
560.578
22.5899
2.32216
562.845
20.5574
2.06577
563.382
15.767
1.54104
562.293
9.62489
0.893503
560.065
3.50475
0.272631
557.218
-1.88254
-0.262675
554.139
-6.18969
-0.682276
551.093
-9.28205
-0.977663
548.337
-11.1386
-1.14747
546.053
-11.8297
-1.20039
544.36
-11.5517
-1.15857
543.273
-10.5887
-1.05276
542.719
-9.24279
-0.913789
542.571
-7.77353
-0.766749
542.692
-6.36934
-0.629102
542.959
-5.13612
-0.509975
543.285
-4.10903
-0.411615
543.62
-3.28388
-0.332843
543.935
-2.63442
-0.270793
544.219
-2.12821
-0.222251
544.471
-1.73627
-0.184524
544.692
-1.43294
-0.15529
544.887
-1.19734
-0.13277
545.06
-1.0132
-0.115212
545.217
-0.868019
-0.103392
-0.739135
-0.087275
547.711
1.91005
0.255242
549.583
6.90046
0.797946
552.345
12.1133
1.31535
555.639
15.9839
1.68515
558.856
17.5513
1.82193
561.241
16.4855
1.68733
562.355
13.3061
1.34668
562.147
8.93905
0.893873
560.887
4.33648
0.428128
558.9
0.101429
0.00308532
556.502
-3.44198
-0.349723
553.958
-6.12294
-0.614983
551.488
-7.88164
-0.787155
549.28
-8.7517
-0.870332
547.464
-8.85726
-0.878238
546.095
-8.38903
-0.831007
545.161
-7.55874
-0.749971
544.6
-6.55856
-0.653641
544.324
-5.53772
-0.556006
544.246
-4.59208
-0.465816
544.291
-3.76689
-0.386996
544.404
-3.0766
-0.320727
544.55
-2.51403
-0.266319
544.707
-2.06234
-0.222269
544.861
-1.70394
-0.187088
545.009
-1.42111
-0.159258
545.147
-1.19848
-0.13751
545.278
-1.0233
-0.120469
545.406
-0.88741
-0.108783
-0.756922
-0.093365
547.412
1.15838
0.179516
548.97
4.735
0.607161
551.435
8.61088
1.03719
554.494
11.5661
1.35893
557.598
12.9451
1.50175
560.14
12.5037
1.44038
561.702
10.5288
1.21478
562.156
7.59686
0.88807
561.628
4.33629
0.528768
560.343
1.20294
0.183338
558.538
-1.51848
-0.118298
556.441
-3.66746
-0.358386
554.261
-5.1731
-0.528828
552.179
-6.03964
-0.629895
550.33
-6.33886
-0.669617
548.794
-6.19236
-0.661401
547.598
-5.74199
-0.620413
546.722
-5.12235
-0.560631
546.121
-4.4432
-0.493335
545.737
-3.78096
-0.426426
545.512
-3.17772
-0.36438
545.399
-2.65389
-0.309577
545.36
-2.21247
-0.262666
545.368
-1.84726
-0.223328
545.405
-1.54981
-0.191
545.459
-1.30983
-0.164855
545.522
-1.11816
-0.14408
545.593
-0.966243
-0.127759
545.677
-0.854736
-0.116331
-0.737136
-0.101998
547.167
0.593225
0.123296
548.478
2.93887
0.485738
550.733
5.4876
0.867493
553.641
7.49669
1.16135
556.715
8.5612
1.31033
559.42
8.50223
1.29704
561.361
7.44043
1.14671
562.362
5.69285
0.90298
562.446
3.63636
0.616132
561.75
1.57413
0.325413
560.457
-0.284678
0.0589341
558.765
-1.81082
-0.16469
556.866
-2.93865
-0.335217
554.932
-3.65604
-0.449935
553.103
-3.99736
-0.512848
551.475
-4.03172
-0.532863
550.099
-3.84478
-0.52108
548.986
-3.52135
-0.488453
548.121
-3.13338
-0.444377
547.469
-2.73371
-0.396002
546.994
-2.354
-0.347932
546.655
-2.01228
-0.303157
546.421
-1.71478
-0.263127
546.263
-1.46097
-0.228314
546.16
-1.24829
-0.198829
546.097
-1.07226
-0.174402
546.063
-0.929446
-0.154589
546.05
-0.814726
-0.139003
546.066
-0.742369
-0.127743
-0.658227
-0.114765
547.014
0.198176
0.0706968
548.145
1.38908
0.419564
550.237
2.61476
0.780291
553.027
3.64472
1.06282
556.097
4.26669
1.2245
558.978
4.3711
1.25042
561.282
3.98132
1.15456
562.785
3.22185
0.968049
563.432
2.26035
0.729395
563.287
1.24594
0.472919
562.485
0.291874
0.225723
561.191
-0.524905
0.00741493
559.582
-1.15987
-0.169722
557.824
-1.59734
-0.300292
556.058
-1.84686
-0.385097
554.393
-1.93713
-0.429745
552.898
-1.9071
-0.442552
551.606
-1.7972
-0.432503
550.523
-1.64308
-0.40784
549.637
-1.47202
-0.375285
548.924
-1.30131
-0.339539
548.357
-1.14167
-0.303981
547.911
-0.997797
-0.270575
547.561
-0.870865
-0.240327
547.288
-0.760974
-0.213826
547.074
-0.666966
-0.191239
546.906
-0.589328
-0.172412
546.774
-0.524887
-0.157394
546.676
-0.498237
-0.146166
-0.470096
-0.134741
546.949
0.0314011
547.95
0.38873
549.814
0.75027
552.414
1.04539
555.44
1.24099
558.492
1.31894
561.192
1.28196
563.264
1.14958
564.574
0.951082
565.103
0.716902
564.921
0.474091
564.151
0.244472
562.947
0.0439413
561.467
-0.117927
559.858
-0.23781
558.239
-0.317745
556.695
-0.363415
555.279
-0.382214
554.018
-0.381689
552.914
-0.368545
551.961
-0.34789
551.143
-0.323689
550.444
-0.29854
549.847
-0.274029
549.337
-0.251284
548.901
-0.230901
548.525
-0.213116
548.198
-0.198153
547.887
-0.186626
-0.174093
529.746
7.61091
14.3788
118.666
27.1412
50.5198
120.056
122.256
123.253
-17.8118
104.736
8.28616
23.4557
-11.1962
-19.8936
2.68556
12.969
3.96375
3.76205
3.75509
3.95433
-3.64619
5.12684
-1.23127
-7.03808
6.78836
-14.4777
5.2123
-1.19146
-6.04479
16.5015
3.96251
-21.6669
23.1729
-0.912283
-4.55608
2.72576
-27.1176
28.2158
-0.652621
-3.17137
1.24932
-30.7327
31.3184
-0.324024
-1.51103
0.497885
-32.5003
32.7559
-0.132855
-0.620699
0.219137
-33.2748
33.391
-0.0579777
-0.277336
0.106248
-33.636
33.6929
-0.0275808
-0.135552
0.0522138
-33.8146
33.8428
-0.0131048
-0.0672638
-33.8985
0.093862
135.665
-0.0413826
-0.158922
-33.8898
-33.8894
-33.8806
543.28
-0.222796
-0.530376
-135.736
-135.691
-135.675
-135.63
543.675
-0.167597
-0.382612
543.988
-0.136773
-0.304997
544.251
-0.117117
-0.257742
544.477
-0.102687
-0.224547
544.676
-0.0911585
-0.198782
544.852
-0.081595
-0.177756
545.011
-0.0737744
-0.160542
545.155
-0.0674495
-0.146938
545.29
-0.0650748
-0.138335
-0.0572287
-0.13261
533.209
12.8
12.7726
122.423
43.8263
43.7566
125.142
125.128
127.202
-15.3046
-15.325
112.369
20.3637
20.3198
-9.46856
-9.5447
-23.2234
19.9857
11.1378
11.1131
-11.452
5.38906
5.39876
-6.67017
-6.68076
14.0145
-19.0794
4.24301
4.19706
-4.85826
-4.8988
20.396
3.22118
3.19777
-23.8729
24.9205
-3.72182
-3.74518
2.35546
2.3457
-27.7591
28.5892
-2.76052
-2.77119
1.24963
1.24539
-30.6393
31.1645
-1.50779
-1.51265
0.545598
0.542379
-32.3088
32.574
-0.674708
-0.678459
0.246967
0.244075
-33.1333
33.2625
-0.308429
-0.311862
0.120322
0.117888
-33.5398
33.6052
-0.150328
-0.15326
0.059424
0.0574851
-33.7469
33.7806
-0.0740774
-0.0764364
-33.8515
0.106668
0.101534
135.512
-0.171877
-0.179333
-33.8422
-33.8422
-33.8328
542.897
-0.570852
-0.596246
-135.608
-135.547
-135.547
-135.487
543.39
-0.408748
-0.430019
543.768
-0.321367
-0.340157
544.076
-0.266881
-0.283979
544.335
-0.228444
-0.244266
544.558
-0.199001
-0.213787
544.752
-0.175448
-0.189343
544.924
-0.156509
-0.169605
545.079
-0.14174
-0.154114
545.219
-0.132253
-0.144
-0.12548
-0.136839
537.788
14.9919
10.3823
128.085
48.2284
33.5634
130.506
129.632
131.638
-22.9352
-10.9159
123.391
23.7601
14.7851
-6.32577
-13.0466
51.7623
32.8791
27.6417
29.1497
28.4605
29.9172
-15.4128
-12.3077
-14.4773
-118.691
-7.27222
-5.60435
-6.67324
-4.92718
-7.25451
-6.79352
5.25758
9.43693
4.28072
1.13582
2.22117
-2.92508
3.98765
-2.96571
-1.45413
-23.5365
8.12891
3.883
-7.96544
-4.50133
23.9906
2.75893
5.71123
-25.3668
-3.23805
25.85
-5.71538
2.2185
4.56219
-27.3335
27.8265
-4.64662
-2.62718
1.72179
3.52665
-29.2633
29.7203
-3.64781
-2.05782
1.04363
2.11256
-30.9837
31.3538
-2.25493
-1.27146
0.517951
1.03836
-32.2607
32.4949
-1.14627
-0.644241
0.251474
0.50305
-33.0253
33.1556
-0.567657
-0.317146
0.126929
0.253882
-33.4464
33.5174
-0.290377
-0.161442
0.0644624
0.129301
-33.6756
33.7141
-0.149513
-0.0827776
-33.7975
0.121326
0.253362
135.32
-0.342503
-0.202031
-33.7866
-33.7883
-33.7776
542.379
-1.04277
-0.690965
-135.439
-135.367
-135.381
-135.312
543.003
-0.74655
-0.501557
543.477
-0.576308
-0.392656
543.853
-0.466936
-0.322128
544.162
-0.390058
-0.272015
544.42
-0.332514
-0.234155
544.64
-0.287776
-0.204488
544.831
-0.252538
-0.180999
544.999
-0.225315
-0.162737
545.149
-0.206186
-0.150474
-0.195346
-0.141366
542.11
14.9169
8.04516
534.684
45.3795
24.5119
131.867
85.6705
46.9096
134.559
133.163
135.074
-23.3651
-31.1949
-21.4045
-28.0309
-45.1141
-13.3856
38.4318
17.9494
33.2143
33.3641
33.8335
33.5732
-5.8306
-19.0884
-34.9395
36.9149
16.3116
6.63201
0.675296
-4.45454
-16.6342
11.9511
5.63466
2.82806
2.6614
6.69056
-13.617
9.99344
-4.17255
-1.55569
10.6782
-30.7151
3.32634
29.9509
-9.40818
-3.83219
2.17221
6.85058
-29.0849
-2.56734
29.0231
-6.3938
1.70114
5.30875
-29.1677
29.2859
-5.09587
-2.03236
1.45829
4.54146
-29.7488
29.9251
-4.42481
-1.75163
1.19497
3.73288
-30.5101
30.7204
-3.69309
-1.44516
0.80961
2.52857
-31.3968
31.6261
-2.57487
-0.992664
0.456155
1.42389
-32.2741
32.4622
-1.49966
-0.568478
0.241574
0.756683
-32.9312
33.0545
-0.816764
-0.304818
0.128824
0.404622
-33.3469
33.4211
-0.443746
-0.163879
0.0686977
0.215528
-33.5939
33.6371
-0.239193
-0.0881548
-33.734
0.140418
0.442978
135.093
-0.55221
-0.230166
-33.7211
-33.7258
-33.7131
541.783
-1.65894
-0.810669
-135.242
-135.159
-135.191
-135.113
542.56
-1.19512
-0.591519
543.147
-0.914138
-0.457654
543.606
-0.727172
-0.368539
543.973
-0.594811
-0.30517
544.274
-0.496882
-0.258039
544.524
-0.42222
-0.221904
544.737
-0.364382
-0.193833
544.921
-0.319946
-0.17221
545.081
-0.287487
-0.157339
-0.268594
-0.14593
545.141
13.5282
6.00642
543.351
39.5648
17.4728
136.563
68.2011
30.3911
137.207
136.771
137.519
-32.1963
138.6
27.4736
9.79991
-7.11481
-42.4004
-9.01201
148.572
33.4053
12.1634
-142.728
-9.10798
-1.9386
-155.241
25.101
9.20099
-7.75314
-8.64783
-7.2901
-1.75462
-1.76616
-1.45617
40.8387
40.4396
39.7878
39.588
-0.834911
-0.214153
-41.478
41.0471
0.291903
1.18807
5.87093
4.54055
-149.986
141.908
-14.092
-5.72186
6.2685
5.4099
5.80195
6.04277
-135.516
4.96521
131.39
-17.3469
-6.58495
5.73157
5.7984
5.52024
4.98694
4.31987
-128.785
127.348
-16.1969
-5.93022
4.80854
4.80429
4.64332
4.33664
3.8645
-126.524
126.162
-15.0257
-5.38562
4.24317
4.20733
4.1214
3.93598
3.52358
-126.045
126.141
-14.039
-4.95428
3.85425
3.83001
3.75434
3.42076
3.02579
-126.407
126.866
-12.429
-4.30991
3.28003
3.34275
3.21064
2.57494
2.25463
-127.545
128.395
-9.67869
-3.28185
2.387
2.5361
2.35702
1.64908
1.45035
-129.387
130.363
-6.53768
-2.16483
1.49591
1.63996
1.49091
0.967906
0.862222
-131.315
132.119
-4.03964
-1.31338
0.872892
0.96984
0.875822
0.553463
0.501138
-132.836
133.399
-2.40244
-0.774094
0.498543
0.557293
0.502409
0.310833
0.289197
-133.887
134.261
-1.39734
-0.452493
0.279186
0.314252
0.282492
0.675272
-134.582
0.1708
134.828
-0.821904
-0.2709
541.174
-2.42668
-0.950904
-135.025
-134.952
-134.986
-134.92
542.117
-1.76429
-0.692914
542.822
-1.33723
-0.529091
543.364
-1.04803
-0.418756
543.791
-0.842756
-0.34067
544.135
-0.6921
-0.283396
544.416
-0.578793
-0.240245
544.651
-0.492083
-0.207243
544.85
-0.425688
-0.18201
545.021
-0.376113
-0.164316
-0.345259
-0.150371
547.032
11.4865
4.33387
548.245
32.9009
12.2757
554.176
53.5655
19.9727
567.877
69.5995
25.9478
-23.2617
-25.6715
-21.6443
-23.6835
147.352
71.1318
26.6743
-26.7819
-24.9921
-24.7347
-23.0935
145.704
146.745
145.396
-20.1979
-3.39386
149.508
16.7679
4.66822
-4.70885
-0.903279
-149.833
148.536
5.5702
1.33846
558.184
-13.0645
-6.70999
8.40736
10.8389
7.19478
9.47562
-145.573
-144.308
-145.055
-144.054
541.604
-28.1461
-11.8102
12.8412
12.9618
11.6137
11.8772
531.314
-35.2573
-13.6873
13.3827
13.1289
12.4424
12.2979
525.276
-38.3327
-14.2685
13.1174
12.864
12.362
12.1652
521.955
-38.7948
-14.0925
12.5884
12.1775
11.9451
11.5911
521.083
-36.3637
-12.9634
11.4032
10.5922
10.8917
10.1729
522.824
-30.8954
-10.7865
9.21895
8.12676
8.90727
7.91041
526.44
-23.7458
-8.10236
6.55172
5.56409
6.42366
5.49276
530.533
-16.8634
-5.63473
4.24813
3.55066
4.22126
3.54553
534.151
-11.371
-3.74042
2.62707
2.18404
2.63754
2.20036
537.01
-7.46057
-2.43152
1.5856
1.32224
1.60584
1.34304
539.122
-4.93681
-1.6003
0.967514
0.84231
0.988399
0.863691
540.655
-3.38483
-1.09635
541.746
-2.44099
-0.792411
542.553
-1.83168
-0.598057
543.166
-1.41769
-0.467082
543.642
-1.12495
-0.374895
544.021
-0.91186
-0.307926
544.329
-0.753144
-0.258058
544.582
-0.632678
-0.220325
544.796
-0.540572
-0.191614
544.976
-0.470735
-0.171161
-0.424459
-0.154621
548.005
9.29819
3.04368
550.551
26.5087
8.52916
556.036
42.091
13.4045
565.141
53.0729
16.8227
575.019
53.8022
16.9503
578.227
40.2672
12.0111
-14.2053
-10.8084
-13.5494
-10.3261
572.574
19.1385
5.10582
-5.76465
-2.17295
-5.73267
-2.38189
561.09
-1.21857
-1.61015
550.173
-14.9703
-5.66244
541.651
-23.3684
-7.89221
535.49
-28.1937
-9.05484
531.218
-30.2958
-9.45433
528.783
-29.7893
-9.10862
528.365
-26.7549
-8.02404
529.724
-22.0274
-6.47428
532.09
-16.8638
-4.86342
534.684
-12.2421
-3.47536
537.041
-8.60295
-2.41328
538.965
-6.00925
-1.67116
540.45
-4.26428
-1.18184
541.565
-3.11305
-0.863576
542.407
-2.33841
-0.651978
543.052
-1.80224
-0.506859
543.555
-1.42049
-0.404059
543.954
-1.14255
-0.329385
544.278
-0.936116
-0.273992
544.543
-0.779924
-0.232281
544.765
-0.660382
-0.200598
544.952
-0.568569
-0.177723
-0.504292
-0.158727
548.371
7.23917
2.10661
551.28
20.9053
5.90412
556.149
33.0545
9.15738
562.811
41.3068
11.2758
569.265
42.1932
11.3775
571.74
33.7606
8.72325
568.907
19.6922
4.67933
562.267
4.98946
0.544428
554.851
-6.59222
-2.45368
548.182
-14.7743
-4.4588
542.675
-20.1495
-5.69659
538.36
-23.1185
-6.31908
535.341
-23.8437
-6.37043
533.792
-22.4602
-5.88836
533.682
-19.5348
-5.02809
534.642
-15.8875
-4.02026
536.163
-12.2673
-3.05927
537.819
-9.14268
-2.25379
539.34
-6.70924
-1.64024
540.614
-4.9331
-1.20191
541.632
-3.67639
-0.89665
542.43
-2.78987
-0.683997
543.058
-2.15816
-0.533794
543.555
-1.70078
-0.425538
543.953
-1.36486
-0.346191
544.277
-1.11437
-0.287115
544.545
-0.924485
-0.242601
544.769
-0.778651
-0.208743
544.957
-0.66531
-0.184009
-0.581793
-0.162882
548.387
5.45644
1.44614
551.21
16.1894
4.10291
555.428
25.9045
6.36125
560.602
32.5359
7.81421
565.352
33.7657
7.97
567.564
28.4984
6.49873
566.38
18.908
4.06687
562.495
8.11601
1.40713
557.478
-1.31675
-0.774371
552.416
-8.67004
-2.4145
547.789
-13.9385
-3.53809
543.834
-17.2432
-4.20741
540.721
-18.675
-4.44665
538.646
-18.3757
-4.29345
537.663
-16.7303
-3.84351
537.619
-14.2924
-3.23478
538.223
-11.6109
-2.59546
539.162
-9.0934
-2.01357
540.184
-6.97216
-1.53455
541.141
-5.30769
-1.16634
541.965
-4.05333
-0.893056
542.649
-3.12529
-0.693053
543.208
-2.44111
-0.546597
543.662
-1.93411
-0.438377
544.034
-1.55609
-0.357752
544.341
-1.27146
-0.297125
544.598
-1.05439
-0.251194
544.815
-0.886772
-0.216126
545
-0.755109
-0.190247
-0.652944
-0.167459
548.228
3.96138
0.990158
550.764
12.3134
2.87724
554.389
20.1815
4.51164
558.624
25.6944
5.59393
562.482
27.1941
5.80585
564.647
23.9754
4.98252
564.518
17.3621
3.47196
562.361
9.40728
1.70757
559.047
1.87776
0.116838
555.282
-4.40985
-1.17817
551.526
-9.22303
-2.14299
548.063
-12.5068
-2.77867
545.101
-14.2763
-3.09583
542.839
-14.6494
-3.12083
541.373
-13.8821
-2.9147
540.665
-12.3566
-2.56364
540.565
-10.4701
-2.15257
540.872
-8.54873
-1.7471
541.394
-6.81084
-1.3885
541.984
-5.35679
-1.09377
542.556
-4.19702
-0.861551
543.071
-3.29858
-0.682976
543.516
-2.61215
-0.546975
543.893
-2.08963
-0.443439
544.213
-1.69235
-0.364623
544.483
-1.38906
-0.304474
544.714
-1.1556
-0.258485
544.914
-0.97413
-0.223185
545.087
-0.830501
-0.196934
-0.712633
-0.173046
547.97
2.76304
0.681489
550.162
9.16214
2.05054
553.281
15.5199
3.29146
556.902
20.1233
4.14625
560.3
21.7225
4.39562
562.547
19.8508
3.94265
563.135
15.3365
2.97865
562.152
9.50872
1.77556
560.053
3.6491
0.600242
557.339
-1.53937
-0.419417
554.362
-5.69987
-1.22784
551.407
-8.7261
-1.80392
548.705
-10.5778
-2.14455
546.44
-11.3196
-2.26515
544.731
-11.1272
-2.20493
543.604
-10.2628
-2.01931
542.996
-9.01079
-1.76564
542.794
-7.62105
-1.49183
542.863
-6.27781
-1.23173
543.088
-5.08751
-1.00394
543.382
-4.08851
-0.813941
543.692
-3.28056
-0.660534
543.989
-2.64094
-0.53886
544.26
-2.13991
-0.443155
544.502
-1.75037
-0.368452
544.716
-1.4479
-0.310391
544.905
-1.21237
-0.265464
545.075
-1.02805
-0.230776
545.228
-0.882117
-0.204883
-0.754462
-0.180483
547.689
1.82373
0.474661
549.527
6.61523
1.50685
552.24
11.6317
2.49088
555.472
15.376
3.20096
558.633
16.9129
3.46995
560.997
15.9402
3.23411
562.138
12.9374
2.60492
562.002
8.78052
1.75856
560.828
4.37609
0.875362
558.932
0.294893
0.0643117
556.63
-3.13335
-0.614119
554.164
-5.74603
-1.12933
551.752
-7.48328
-1.46982
549.577
-8.37249
-1.6424
547.768
-8.52547
-1.67134
546.386
-8.1187
-1.59304
545.424
-7.35202
-1.44713
544.827
-6.40965
-1.26883
544.515
-5.43658
-1.08514
544.403
-4.52758
-0.913436
544.419
-3.72886
-0.761923
544.508
-3.05675
-0.633533
544.634
-2.50612
-0.527429
544.775
-2.062
-0.44107
544.918
-1.70826
-0.371807
545.056
-1.42822
-0.316853
545.187
-1.20728
-0.273734
545.312
-1.03329
-0.240247
545.434
-0.897851
-0.215308
-0.770107
-0.190939
547.397
1.10419
0.333416
548.927
4.54035
1.15223
551.343
8.2766
1.97615
554.348
11.135
2.59461
557.404
12.484
2.87432
559.921
12.0934
2.77054
561.493
10.2278
2.35241
561.989
7.43403
1.73845
561.529
4.30888
1.05624
560.319
1.29247
0.396246
558.589
-1.33876
-0.183699
556.562
-3.42837
-0.648973
554.44
-4.90631
-0.983497
552.398
-5.77351
-1.18702
550.57
-6.09463
-1.27357
549.04
-5.98262
-1.26728
547.835
-5.57159
-1.19623
546.942
-4.9904
-1.08689
546.318
-4.34528
-0.960999
545.91
-3.7111
-0.834101
545.661
-3.12982
-0.715231
545.527
-2.62246
-0.609416
545.47
-2.19301
-0.518262
545.462
-1.83631
-0.441438
545.486
-1.5448
-0.378051
545.528
-1.30899
-0.326638
545.583
-1.12029
-0.285655
545.646
-0.970741
-0.253632
545.723
-0.860784
-0.230035
-0.747552
-0.206111
547.158
0.562905
0.227609
548.444
2.8138
0.926313
550.659
5.26794
1.66135
553.518
7.21004
2.22721
556.545
8.2487
2.51879
559.219
8.21285
2.50327
561.157
7.21242
2.22431
562.182
5.54824
1.76447
562.31
3.5785
1.21826
561.671
1.59511
0.661698
560.442
-0.199465
0.148972
558.812
-1.67951
-0.283962
556.968
-2.78053
-0.61716
555.078
-3.48903
-0.844941
553.281
-3.83579
-0.97401
551.67
-3.88532
-1.02024
550.3
-3.71882
-1.00404
549.185
-3.41742
-0.946062
548.31
-3.05056
-0.864359
547.645
-2.6696
-0.772957
547.154
-2.30566
-0.681057
546.8
-1.97673
-0.594766
546.551
-1.68932
-0.517156
546.379
-1.44333
-0.449359
546.264
-1.23664
-0.391747
546.189
-1.06517
-0.343897
546.145
-0.925925
-0.305048
546.124
-0.814172
-0.274393
546.132
-0.744041
-0.252241
-0.665491
-0.228889
547.007
0.185553
0.131777
548.116
1.32463
0.799782
550.17
2.4999
1.49457
552.912
3.49162
2.03994
555.934
4.09473
2.35672
558.778
4.2038
2.41568
561.067
3.83848
2.24028
562.578
3.11697
1.88902
563.253
2.19834
1.43469
563.151
1.22574
0.943527
562.401
0.308425
0.467822
561.163
-0.479139
0.0454688
559.606
-1.09364
-0.299687
557.892
-1.51939
-0.556926
556.163
-1.76492
-0.727075
554.525
-1.85724
-0.819964
553.047
-1.83339
-0.850744
551.765
-1.73203
-0.836207
550.686
-1.58735
-0.792083
549.798
-1.4256
-0.731458
549.08
-1.26349
-0.663654
548.506
-1.11142
-0.595474
548.051
-0.974027
-0.530963
547.692
-0.852533
-0.472255
547.41
-0.747137
-0.420656
547.187
-0.656794
-0.376548
547.01
-0.582224
-0.339861
546.869
-0.520196
-0.310207
546.765
-0.496008
-0.289304
-0.472337
-0.265962
546.942
0.0612276
547.925
0.731189
549.755
1.42062
552.306
1.98593
555.28
2.36225
558.286
2.51688
560.954
2.45319
563.014
2.2069
564.331
1.83297
564.884
1.38959
564.737
0.928517
564.011
0.491414
562.853
0.108524
561.417
-0.202078
559.848
-0.434021
558.264
-0.590803
556.749
-0.682669
555.358
-0.723144
554.115
-0.72622
553.025
-0.704497
552.081
-0.667689
551.269
-0.623428
550.574
-0.576791
549.978
-0.530906
549.468
-0.488073
549.029
-0.449462
548.65
-0.415843
548.319
-0.387045
548.003
-0.366791
-0.34024
535.553
6.03285
16.5332
126.018
20.053
54.4477
126.802
129.099
129.653
-26.1977
119.445
5.86427
26.9068
-14.8457
-27.0292
25.3222
1.7701
14.7826
0.443461
1.42717
-0.0223877
-1.84806
-20.8848
9.98376
-1.15172
-9.70091
21.7534