/*--------------------------------*- C++ -*----------------------------------*\
  =========                 |
  \\      /  F ield         | OpenFOAM: The Open Source CFD Toolbox
   \\    /   O peration     | Website:  https://openfoam.org
    \\  /    A nd           | Version:  7
     \\/     M anipulation  |
\*---------------------------------------------------------------------------*/
FoamFile
{
    version     2.0;
    format      ascii;
    class       volVectorField;
    location    "100";
    object      U;
}
// * * * * * * * * * * * * * * * * * * * * * * * * * * * * * * * * * * * * * //

dimensions      [0 1 -1 0 0 0 0];

internalField   nonuniform List<vector> 
27370
(
(13.8846 0.0863617 0.0858297)
(13.064 0.333792 0.332625)
(11.0066 0.37355 0.364968)
(5.09812 0.518422 0.483956)
(-0.662055 -0.115732 -0.138747)
(3.66529 -0.207863 -0.218488)
(7.83874 -0.177209 -0.180293)
(11.0489 -0.119692 -0.120556)
(12.7875 -0.0492072 -0.0495616)
(13.4477 -0.0181299 -0.0183764)
(13.7077 -0.00766419 -0.00784847)
(13.8249 -0.0036193 -0.00375552)
(13.8815 -0.00169275 -0.0017938)
(13.9036 -0.000988559 -0.00111517)
(13.9137 -0.00128515 -0.00143842)
(13.9223 -0.00113744 -0.00126035)
(13.929 -0.000998328 -0.00110466)
(13.9348 -0.000896414 -0.000992238)
(13.94 -0.000816259 -0.000904504)
(13.9447 -0.000746482 -0.000828714)
(13.9489 -0.000683867 -0.000760998)
(13.9528 -0.000630541 -0.000703141)
(13.9563 -0.00058599 -0.0006545)
(13.9594 -0.000575314 -0.000640216)
(13.9638 -0.000519346 -0.000581998)
(13.8901 0.228937 0.0749933)
(13.2555 0.845894 0.278384)
(11.659 1.60281 0.313678)
(7.24383 3.75017 0.411751)
(2.03752 -1.66875 -0.18186)
(6.31636 -1.68459 -0.186731)
(9.18277 -1.30586 -0.143534)
(11.3433 -0.908735 -0.101757)
(12.7198 -0.423891 -0.0498197)
(13.37 -0.170317 -0.0203349)
(13.6555 -0.0747897 -0.00890915)
(13.7901 -0.0359669 -0.00427446)
(13.8569 -0.0174556 -0.00205319)
(13.887 -0.00891976 -0.00131246)
(13.9022 -0.00604921 -0.00172151)
(13.9139 -0.00436727 -0.0014867)
(13.9226 -0.00354731 -0.0012769)
(13.9298 -0.00306235 -0.0011217)
(13.936 -0.00271672 -0.00100197)
(13.9413 -0.00243802 -0.000902784)
(13.9461 -0.00220183 -0.000818065)
(13.9504 -0.00200543 -0.000747609)
(13.9542 -0.00184774 -0.000689952)
(13.9576 -0.00177012 -0.000668842)
(13.9621 -0.00166623 -0.000591219)
(13.9144 0.304255 0.0599805)
(13.5037 1.03164 0.202962)
(12.6359 2.0538 0.221437)
(10.761 4.54543 0.263678)
(1.03368 -0.317586 0.0746242)
(8.68614 -2.93424 -0.16825)
(9.89248 -2.07058 -0.119659)
(10.9997 -1.64753 -0.0953012)
(12.0006 -1.21892 -0.0719484)
(12.8137 -0.669587 -0.0411854)
(13.3327 -0.309938 -0.019359)
(13.6093 -0.147047 -0.0091105)
(13.7534 -0.0739122 -0.0045243)
(13.8295 -0.0374884 -0.00223567)
(13.8661 -0.0200236 -0.00154847)
(13.8865 -0.0131581 -0.00216891)
(13.9021 -0.0093811 -0.00184077)
(13.9138 -0.00735067 -0.00154127)
(13.9231 -0.00610383 -0.00131447)
(13.9308 -0.00523602 -0.001142)
(13.9373 -0.00457254 -0.00100521)
(13.9429 -0.0040401 -0.000893899)
(13.9477 -0.00361126 -0.000804348)
(13.952 -0.00327654 -0.000732794)
(13.9556 -0.00305622 -0.000701135)
(13.9603 -0.0029342 -0.000609435)
(13.954 0.317537 0.0458251)
(13.714 1.01889 0.143631)
(13.4632 2.067 0.295793)
(13.1909 3.66914 0.280244)
(14.1353 6.41642 0.257043)
(11.6957 -5.70484 -0.180761)
(11.8037 -3.52447 -0.14251)
(11.5671 -2.28775 -0.0910872)
(11.7576 -1.80197 -0.0716619)
(12.0957 -1.53982 -0.0609844)
(12.4935 -1.22796 -0.0487928)
(12.9301 -0.786391 -0.0315791)
(13.3099 -0.423774 -0.016969)
(13.562 -0.220953 -0.00870872)
(13.711 -0.117501 -0.00456279)
(13.7962 -0.0622748 -0.00237057)
(13.8407 -0.0341078 -0.00190175)
(13.868 -0.0228605 -0.00280503)
(13.8883 -0.0164474 -0.00231384)
(13.9036 -0.0126953 -0.00188076)
(13.9155 -0.0102669 -0.00155565)
(13.925 -0.00855984 -0.00131342)
(13.9329 -0.00728258 -0.00112809)
(13.9394 -0.00629087 -0.000983041)
(13.9449 -0.00551227 -0.000869674)
(13.9497 -0.00491117 -0.000780725)
(13.9536 -0.00448424 -0.00073587)
(13.9586 -0.00425474 -0.000631016)
(13.9813 0.296455 0.033724)
(13.8824 0.895367 0.0993627)
(13.8429 1.63511 0.178976)
(13.9459 2.52 0.144682)
(14.8139 3.22729 0.187505)
(16.4432 2.9836 0.0906644)
(17.3261 0.248985 0.00795052)
(14.8688 -1.67887 -0.10157)
(13.4681 -1.73661 -0.103747)
(12.9642 -1.50971 -0.090187)
(12.8223 -1.35427 -0.0807148)
(12.8242 -1.23781 -0.0728587)
(12.9078 -1.05834 -0.0605214)
(13.0832 -0.775286 -0.0427176)
(13.3121 -0.488088 -0.0261381)
(13.5132 -0.28536 -0.015064)
(13.6559 -0.163451 -0.00861151)
(13.7492 -0.0919236 -0.00488107)
(13.8085 -0.0525465 -0.0028517)
(13.8482 -0.0354837 -0.00365531)
(13.8741 -0.0258387 -0.00288301)
(13.8932 -0.0197807 -0.00226735)
(13.9078 -0.0156932 -0.00182324)
(13.9193 -0.0127882 -0.00150094)
(13.9285 -0.0106385 -0.00126117)
(13.936 -0.00900367 -0.00107874)
(13.9422 -0.00774333 -0.000939233)
(13.9475 -0.00677619 -0.000831177)
(13.9518 -0.00606614 -0.000771798)
(13.9571 -0.00564832 -0.000653253)
(13.9972 0.257459 0.0240485)
(13.9869 0.745703 0.0684835)
(14.036 1.25274 0.113802)
(14.2868 1.67721 0.153064)
(14.784 1.74469 0.159453)
(15.2889 1.50608 0.071523)
(15.3834 0.39341 0.0172332)
(14.5412 -0.494075 -0.0501869)
(13.982 -0.789883 -0.0757384)
(13.6337 -0.899611 -0.0827471)
(13.439 -0.92819 -0.0836979)
(13.3303 -0.907408 -0.0806357)
(13.2851 -0.821177 -0.0715973)
(13.3142 -0.664419 -0.0565773)
(13.4097 -0.47938 -0.040157)
(13.5296 -0.31818 -0.0266403)
(13.6377 -0.201471 -0.0170865)
(13.7225 -0.124762 -0.0107957)
(13.7851 -0.0787272 -0.00694727)
(13.8297 -0.0529787 -0.00479055)
(13.8613 -0.0381027 -0.00350117)
(13.8841 -0.0286876 -0.0026603)
(13.9013 -0.0223448 -0.00208959)
(13.9144 -0.0178674 -0.00168664)
(13.9248 -0.0145962 -0.00139297)
(13.9332 -0.0121471 -0.00117372)
(13.94 -0.0102834 -0.0010085)
(13.9458 -0.00885847 -0.000881546)
(13.9504 -0.00779157 -0.000807632)
(13.9558 -0.00711077 -0.00067556)
(14.0059 0.211654 0.0167348)
(14.0407 0.603512 0.0468207)
(14.1272 0.969492 0.0743801)
(14.3239 1.23903 0.0947943)
(14.6208 1.25625 0.0960211)
(14.8534 0.901792 0.0661336)
(14.816 0.3578 0.0243785)
(14.5264 -0.139874 -0.0140257)
(14.189 -0.437985 -0.0353504)
(13.9244 -0.600024 -0.0462662)
(13.7362 -0.682137 -0.0514878)
(13.604 -0.706627 -0.052655)
(13.52 -0.672571 -0.0496124)
(13.4904 -0.582178 -0.0424455)
(13.5165 -0.458812 -0.0330927)
(13.5791 -0.334763 -0.0240553)
(13.653 -0.231426 -0.0167239)
(13.7216 -0.155243 -0.0113502)
(13.7783 -0.104309 -0.0077208)
(13.822 -0.0719833 -0.00541785)
(13.8545 -0.0518332 -0.00394896)
(13.8788 -0.0387062 -0.00297824)
(13.8971 -0.029794 -0.00231645)
(13.9113 -0.0235206 -0.00184989)
(13.9224 -0.0189722 -0.00151162)
(13.9313 -0.0155978 -0.00126092)
(13.9385 -0.0130494 -0.00107332)
(13.9446 -0.011103 -0.000929632)
(13.9495 -0.00962439 -0.000842446)
(13.9551 -0.00861717 -0.000698244)
(14.0095 0.166771 0.0114767)
(14.0624 0.476938 0.0319865)
(14.157 0.753926 0.0497804)
(14.3142 0.945612 0.061705)
(14.5128 0.960355 0.0622265)
(14.6575 0.73837 0.0465918)
(14.6504 0.388208 0.0233132)
(14.4978 0.036755 0.000297274)
(14.2881 -0.218482 -0.015589)
(14.0939 -0.387194 -0.0257909)
(13.9328 -0.491124 -0.0318592)
(13.8044 -0.541806 -0.0346187)
(13.7093 -0.5416 -0.0342657)
(13.6528 -0.494459 -0.0310339)
(13.6382 -0.415386 -0.0259031)
(13.6582 -0.325427 -0.0202351)
(13.6982 -0.24172 -0.0150705)
(13.7446 -0.173425 -0.0108944)
(13.7885 -0.123061 -0.00780752)
(13.8257 -0.0881357 -0.00566019)
(13.8554 -0.064541 -0.00419519)
(13.8785 -0.0484394 -0.0031867)
(13.8965 -0.0372308 -0.00248117)
(13.9106 -0.0292504 -0.00197673)
(13.9217 -0.0234448 -0.00160861)
(13.9308 -0.0191402 -0.00133534)
(13.9382 -0.0158944 -0.00113092)
(13.9443 -0.0134105 -0.000974202)
(13.9493 -0.0114996 -0.000876079)
(13.955 -0.0101226 -0.000722321)
(14.01 0.126977 0.0078088)
(14.0662 0.370337 0.0219519)
(14.156 0.587682 0.0340619)
(14.2845 0.735492 0.0419015)
(14.4299 0.756512 0.0426039)
(14.5351 0.619627 0.0340454)
(14.5475 0.384433 0.0204268)
(14.467 0.13 0.00592702)
(14.3356 -0.0802669 -0.00559359)
(14.1957 -0.236828 -0.0140023)
(14.0654 -0.34417 -0.0196537)
(13.9514 -0.406827 -0.0228466)
(13.8583 -0.42708 -0.0237341)
(13.7916 -0.408658 -0.0225327)
(13.7552 -0.361529 -0.0198226)
(13.7471 -0.299709 -0.0163926)
(13.7599 -0.236037 -0.0129319)
(13.7844 -0.179223 -0.00987696)
(13.813 -0.133539 -0.00742762)
(13.8404 -0.0992215 -0.00558623)
(13.8642 -0.0743828 -0.00424558)
(13.884 -0.0565759 -0.00327694)
(13.9 -0.0437652 -0.00257497)
(13.9129 -0.0344549 -0.00206101)
(13.9235 -0.0276008 -0.00168021)
(13.9321 -0.0224856 -0.00139495)
(13.9392 -0.0186144 -0.00118052)
(13.9452 -0.0156386 -0.00101545)
(13.9501 -0.0133223 -0.00090944)
(13.9557 -0.0115621 -0.000749656)
(14.0087 0.093539 0.00530898)
(14.0607 0.282941 0.0152322)
(14.1409 0.457367 0.0238782)
(14.2483 0.577878 0.0295415)
(14.3637 0.605054 0.0305391)
(14.4508 0.521016 0.025797)
(14.4772 0.360478 0.0174793)
(14.4397 0.173886 0.00798667)
(14.3589 0.00477823 -0.000366523)
(14.26 -0.131848 -0.00703401)
(14.158 -0.232859 -0.0119113)
(14.0612 -0.298489 -0.0150282)
(13.9759 -0.329752 -0.0164503)
(13.9076 -0.329533 -0.0163289)
(13.8605 -0.304586 -0.0150266)
(13.8352 -0.264429 -0.013029)
(13.8283 -0.218446 -0.0107905)
(13.8344 -0.173889 -0.00864523)
(13.848 -0.13523 -0.00679251)
(13.8644 -0.104069 -0.0052993)
(13.8806 -0.0800779 -0.00414362)
(13.8954 -0.0620218 -0.00326605)
(13.9081 -0.0485521 -0.00260457)
(13.9189 -0.0385068 -0.00210578)
(13.9279 -0.0309792 -0.00172832)
(13.9355 -0.0252942 -0.00144147)
(13.9419 -0.0209586 -0.00122388)
(13.9475 -0.0176045 -0.00105536)
(13.952 -0.0149676 -0.000944774)
(13.9574 -0.0128499 -0.00078312)
(14.0063 0.0664078 0.00363675)
(14.0506 0.212263 0.0107809)
(14.1204 0.353322 0.0172439)
(14.2124 0.453797 0.0216413)
(14.3105 0.484681 0.0228421)
(14.3895 0.434605 0.0202367)
(14.4269 0.324573 0.01499)
(14.4176 0.187684 0.00856915)
(14.3714 0.0545388 0.00243811)
(14.3037 -0.0599087 -0.00280871)
(14.2258 -0.149556 -0.00690813)
(14.1458 -0.212336 -0.00976701)
(14.0703 -0.248047 -0.0113782)
(14.0047 -0.258575 -0.0118339)
(13.9533 -0.2485 -0.0113638)
(13.9179 -0.224325 -0.0102778)
(13.8976 -0.192821 -0.00888219)
(13.8895 -0.159678 -0.00742318)
(13.89 -0.128873 -0.00606898)
(13.8957 -0.10245 -0.00490414)
(13.9037 -0.0809504 -0.00394884)
(13.9125 -0.0640053 -0.00318678)
(13.9209 -0.0508877 -0.00258836)
(13.9286 -0.0408204 -0.00212217)
(13.9354 -0.0331115 -0.00176045)
(13.9415 -0.027197 -0.00148052)
(13.9468 -0.0226381 -0.00126559)
(13.9515 -0.0190854 -0.00109804)
(13.9554 -0.0162768 -0.000985954)
(13.9604 -0.0138782 -0.000826821)
(14.0033 0.0450109 0.00252746)
(14.0387 0.155438 0.00786596)
(14.099 0.268303 0.0129371)
(14.1801 0.351283 0.0165552)
(14.2683 0.382708 0.0178669)
(14.3444 0.35488 0.0164905)
(14.391 0.280601 0.0130908)
(14.4016 0.181704 0.00860866)
(14.3804 0.0797059 0.00401729)
(14.3367 -0.0124877 -0.000150158)
(14.2789 -0.0881811 -0.00359416)
(14.2141 -0.144277 -0.00616662)
(14.1486 -0.179802 -0.007815)
(14.0877 -0.19575 -0.00858448)
(14.0355 -0.195102 -0.00861772)
(13.9946 -0.182272 -0.00811782)
(13.9654 -0.162075 -0.00729684)
(13.9468 -0.1388 -0.00633679)
(13.9367 -0.115693 -0.00537319)
(13.9327 -0.0947351 -0.0044886)
(13.9327 -0.0768173 -0.00372088)
(13.935 -0.0620771 -0.00307786)
(13.9385 -0.0502448 -0.00255153)
(13.9425 -0.0408878 -0.00212723)
(13.9465 -0.0335479 -0.00178891)
(13.9504 -0.02781 -0.00152162)
(13.9541 -0.0233304 -0.00131343)
(13.9575 -0.0198144 -0.00115023)
(13.9606 -0.0170487 -0.00103898)
(13.9648 -0.0145103 -0.000886585)
(13.9999 0.02859 0.00177743)
(14.027 0.109684 0.00597593)
(14.0797 0.196764 0.0101826)
(14.1533 0.26252 0.0133178)
(14.2362 0.291466 0.0146909)
(14.3122 0.278214 0.0140495)
(14.3665 0.230247 0.0117986)
(14.3923 0.161515 0.00856625)
(14.3901 0.0867637 0.00503126)
(14.3654 0.0161751 0.0016463)
(14.3243 -0.044171 -0.00129793)
(14.2729 -0.0909896 -0.00362864)
(14.2169 -0.122958 -0.00526808)
(14.1613 -0.140371 -0.00622263)
(14.1103 -0.145038 -0.0065766)
(14.0666 -0.139861 -0.0064657)
(14.0316 -0.128156 -0.00604106)
(14.0053 -0.11302 -0.00544043)
(13.9868 -0.0969298 -0.00477344)
(13.9746 -0.0815495 -0.00411515)
(13.9671 -0.0677972 -0.00350936)
(13.9631 -0.0560281 -0.00297635)
(13.9613 -0.0462456 -0.00252146)
(13.9611 -0.0382707 -0.00214169)
(13.9618 -0.0318506 -0.00183007)
(13.963 -0.0267239 -0.00157832)
(13.9645 -0.0226643 -0.00137895)
(13.9663 -0.019457 -0.00122214)
(13.968 -0.0170072 -0.00111296)
(13.9711 -0.0145567 -0.000971043)
(13.997 0.0162393 0.00122266)
(14.0173 0.0724825 0.00477997)
(14.0644 0.134539 0.00850626)
(14.1331 0.182479 0.0113639)
(14.2131 0.206413 0.0127979)
(14.2904 0.202451 0.0126345)
(14.3518 0.174308 0.01113)
(14.3899 0.130224 0.0087188)
(14.4032 0.0796354 0.0058977)
(14.3942 0.0298233 0.00304997)
(14.3675 -0.0143734 0.000449357)
(14.3281 -0.0500847 -0.0017228)
(14.2809 -0.0759263 -0.00336758)
(14.2308 -0.0917653 -0.00446124)
(14.1818 -0.0985649 -0.00504721)
(14.1371 -0.09809 -0.0052162)
(14.0984 -0.092473 -0.00507931)
(14.0666 -0.0837926 -0.00474485)
(14.0414 -0.0737845 -0.00430444)
(14.0223 -0.0636899 -0.00382625)
(14.0081 -0.0542688 -0.00335561)
(13.9979 -0.045899 -0.00291912)
(13.9908 -0.0387014 -0.00253012)
(13.9859 -0.0326481 -0.0021934)
(13.9827 -0.027636 -0.00190861)
(13.9807 -0.0235347 -0.00167286)
(13.9795 -0.0202359 -0.0014823)
(13.9789 -0.0176109 -0.00133207)
(13.9789 -0.0157706 -0.0012242)
(13.9799 -0.0137355 -0.00109529)
(13.9961 0.00647958 0.000703282)
(14.0111 0.0416233 0.00413601)
(14.0536 0.0787072 0.00765975)
(14.1183 0.108365 0.0104062)
(14.1961 0.125224 0.0119637)
(14.2753 0.126459 0.0121847)
(14.3439 0.113125 0.0112135)
(14.3936 0.0893204 0.0093616)
(14.4211 0.0602206 0.00701006)
(14.4268 0.030258 0.00449473)
(14.4137 0.00266068 0.00207961)
(14.3858 -0.0204852 -4.42442e-05)
(14.3475 -0.0380566 -0.00175805)
(14.3034 -0.0497471 -0.00301121)
(14.2574 -0.0559526 -0.0038147)
(14.2129 -0.0575899 -0.00422628)
(14.1721 -0.055845 -0.00432964)
(14.1363 -0.0519238 -0.00421419)
(14.1059 -0.0468691 -0.00396092)
(14.0808 -0.0414582 -0.00363448)
(14.0605 -0.0361936 -0.00328145)
(14.0443 -0.0313529 -0.00293256)
(14.0315 -0.0270556 -0.00260621)
(14.0215 -0.0233289 -0.00231245)
(14.0136 -0.0201486 -0.00205552)
(14.0075 -0.0174707 -0.00183676)
(14.0027 -0.0152803 -0.00165509)
(13.9988 -0.0134924 -0.00150999)
(13.9961 -0.0125464 -0.00140194)
(13.9935 -0.0114132 -0.00128756)
(13.9983 0.000676118 0.000301585)
(14.0093 0.0162101 0.00382106)
(14.0453 0.0331342 0.00739112)
(14.1039 0.0483024 0.0102828)
(14.178 0.059049 0.0121877)
(14.2584 0.0634667 0.0129332)
(14.3345 0.0610963 0.0125468)
(14.3974 0.0529928 0.0112249)
(14.4414 0.0411291 0.00926026)
(14.4649 0.0275527 0.00695276)
(14.4689 0.0139861 0.00456633)
(14.4558 0.00170633 0.00231371)
(14.4296 -0.00844835 0.000349814)
(14.3942 -0.0160678 -0.00123195)
(14.3537 -0.0211245 -0.00239938)
(14.3116 -0.0238858 -0.00317267)
(14.2706 -0.0247975 -0.00360809)
(14.2324 -0.0243671 -0.00377926)
(14.198 -0.0230737 -0.00376134)
(14.1677 -0.0213085 -0.00362038)
(14.1414 -0.019354 -0.00340844)
(14.1188 -0.017393 -0.00316327)
(14.0995 -0.0155299 -0.00291035)
(14.0831 -0.0138166 -0.00266602)
(14.069 -0.0122751 -0.00243994)
(14.057 -0.0109049 -0.00223783)
(14.0467 -0.00973612 -0.00206219)
(14.0375 -0.00870233 -0.00191522)
(14.0307 -0.00817168 -0.0018006)
(14.0196 -0.0077553 -0.00167336)
(13.8901 0.0751118 0.22846)
(13.2553 0.279039 0.844132)
(11.6575 0.314796 1.59746)
(7.24743 0.412402 3.75607)
(2.14062 -0.184688 -1.83562)
(6.363 -0.183826 -1.73619)
(9.19243 -0.142192 -1.32139)
(11.3446 -0.101282 -0.914175)
(12.7199 -0.0496054 -0.426283)
(13.3698 -0.0201731 -0.172074)
(13.6553 -0.00877463 -0.0761969)
(13.7899 -0.00416746 -0.0370588)
(13.8567 -0.0019708 -0.0182885)
(13.8869 -0.00120835 -0.00951404)
(13.9021 -0.0015921 -0.00649113)
(13.9138 -0.00137899 -0.00472386)
(13.9225 -0.00118172 -0.00385606)
(13.9297 -0.00103487 -0.00334029)
(13.9359 -0.000921413 -0.00297236)
(13.9413 -0.000827363 -0.002676)
(13.9461 -0.000747116 -0.00242489)
(13.9503 -0.000680708 -0.00221532)
(13.9542 -0.000626759 -0.00204581)
(13.9576 -0.000608956 -0.00195786)
(13.9621 -0.000533387 -0.00184761)
(13.9019 0.20221 0.201983)
(13.3907 0.720071 0.718781)
(12.1375 1.37753 1.37401)
(8.81355 3.15745 3.14476)
(5.27879 -1.82013 -1.82156)
(8.09268 -1.39444 -1.40756)
(9.99759 -1.07218 -1.07949)
(11.5467 -0.790788 -0.793981)
(12.6656 -0.425089 -0.426499)
(13.2929 -0.187275 -0.188352)
(13.6002 -0.0848175 -0.0857945)
(13.7524 -0.0411131 -0.041941)
(13.8302 -0.0201393 -0.0208014)
(13.8697 -0.0102933 -0.0107799)
(13.8907 -0.0070437 -0.00741618)
(13.9055 -0.00509448 -0.00540541)
(13.9162 -0.00409055 -0.00436545)
(13.9248 -0.00347125 -0.00372186)
(13.9319 -0.00302704 -0.00325937)
(13.938 -0.00267676 -0.00289414)
(13.9433 -0.00238859 -0.00259302)
(13.948 -0.00215379 -0.00234654)
(13.9522 -0.0019675 -0.00214963)
(13.9557 -0.00186931 -0.00204212)
(13.9604 -0.00172418 -0.00189122)
(13.9298 0.273568 0.163773)
(13.5836 0.907832 0.541782)
(12.8887 1.8001 0.992354)
(11.862 4.07489 2.27822)
(11.2203 9.44753 4.82772)
(5.84729 -3.30428 -1.57803)
(9.69653 -2.40908 -1.25881)
(10.4839 -1.75184 -0.923207)
(11.2969 -1.41987 -0.749574)
(12.0811 -1.10633 -0.584364)
(12.77 -0.672963 -0.35715)
(13.2653 -0.336119 -0.178821)
(13.5559 -0.164497 -0.0873147)
(13.7153 -0.0835254 -0.0442193)
(13.802 -0.0427577 -0.0225505)
(13.8488 -0.0226911 -0.0122147)
(13.8756 -0.0148755 -0.00881047)
(13.8942 -0.0105965 -0.00646531)
(13.9077 -0.00824596 -0.0051468)
(13.9184 -0.00677358 -0.00429015)
(13.927 -0.00574359 -0.00367241)
(13.9341 -0.00496351 -0.00319672)
(13.9402 -0.00434658 -0.00281745)
(13.9454 -0.00385535 -0.00251492)
(13.95 -0.0034734 -0.00227686)
(13.9538 -0.0032163 -0.00213768)
(13.9587 -0.00306021 -0.001953)
(13.9634 0.290511 0.126271)
(13.7681 0.916158 0.392526)
(13.5935 1.80649 0.77103)
(13.4304 3.15969 1.21967)
(14.3643 5.23315 1.87016)
(20.241 7.87417 2.76523)
(16.7572 -5.87066 -2.01437)
(12.2112 -2.94526 -1.06016)
(11.8634 -1.99864 -0.719872)
(11.9659 -1.59602 -0.575743)
(12.2198 -1.37908 -0.495846)
(12.5391 -1.14272 -0.407587)
(12.9073 -0.785441 -0.277809)
(13.2597 -0.449752 -0.157628)
(13.5154 -0.241843 -0.0839112)
(13.6751 -0.130286 -0.0448936)
(13.7696 -0.0697862 -0.0240313)
(13.8242 -0.0380228 -0.0140437)
(13.8581 -0.0252136 -0.0106432)
(13.8812 -0.0180949 -0.00783369)
(13.8981 -0.013898 -0.00613216)
(13.9111 -0.0111643 -0.0049919)
(13.9215 -0.00924125 -0.00417238)
(13.9299 -0.00780945 -0.00355589)
(13.9369 -0.00670568 -0.00307858)
(13.9428 -0.00584414 -0.00270679)
(13.9478 -0.00517968 -0.00241803)
(13.952 -0.00470246 -0.00223984)
(13.9571 -0.00443589 -0.00201935)
(13.9858 0.27424 0.0937643)
(13.9118 0.819244 0.275942)
(13.8915 1.47169 0.489801)
(13.9938 2.27249 0.657421)
(14.7857 2.8365 0.825713)
(16.0824 2.16103 0.638938)
(16.7894 0.318042 0.0828567)
(14.8292 -1.33172 -0.399924)
(13.5944 -1.49962 -0.447183)
(13.0937 -1.34788 -0.400043)
(12.9297 -1.22478 -0.361518)
(12.9071 -1.13059 -0.330895)
(12.9616 -0.989293 -0.28574)
(13.0995 -0.75448 -0.214882)
(13.2996 -0.495046 -0.139623)
(13.4907 -0.29776 -0.0836267)
(13.6341 -0.17342 -0.0488375)
(13.7312 -0.0988933 -0.0283162)
(13.7951 -0.0571664 -0.0168059)
(13.8402 -0.0382242 -0.0128618)
(13.8681 -0.0277889 -0.00941502)
(13.8885 -0.0212086 -0.00723438)
(13.9041 -0.0167624 -0.00576161)
(13.9162 -0.0136057 -0.00471409)
(13.9259 -0.0112754 -0.00394141)
(13.9338 -0.00950887 -0.00335652)
(13.9403 -0.0081504 -0.00290936)
(13.9458 -0.00710766 -0.00256549)
(13.9504 -0.00633668 -0.00234466)
(13.9557 -0.00587689 -0.00208558)
(13.9995 0.240185 0.0673548)
(14.0007 0.692584 0.191932)
(14.0593 1.15093 0.315764)
(14.2985 1.52341 0.412973)
(14.7441 1.57591 0.433209)
(15.2066 1.39069 0.318689)
(15.2882 0.404538 0.0878203)
(14.5363 -0.398121 -0.122716)
(14.031 -0.689724 -0.197318)
(13.6982 -0.807371 -0.221617)
(13.5031 -0.844498 -0.227304)
(13.3893 -0.834333 -0.222101)
(13.3344 -0.766516 -0.202032)
(13.3463 -0.633847 -0.165306)
(13.423 -0.468617 -0.121475)
(13.5302 -0.317953 -0.0826865)
(13.6325 -0.204882 -0.053923)
(13.7158 -0.128772 -0.0345201)
(13.7787 -0.0822444 -0.0224377)
(13.8243 -0.0556243 -0.0152672)
(13.8569 -0.0401007 -0.0110211)
(13.8805 -0.030199 -0.00832546)
(13.8982 -0.0235011 -0.0065157)
(13.9119 -0.0187668 -0.00524397)
(13.9226 -0.0153071 -0.00431922)
(13.9313 -0.0127178 -0.0036297)
(13.9384 -0.0107481 -0.00310922)
(13.9443 -0.0092405 -0.00271152)
(13.9491 -0.00810559 -0.00244846)
(13.9547 -0.00738008 -0.00215042)
(14.0068 0.198802 0.0471508)
(14.0462 0.565967 0.132222)
(14.1353 0.904467 0.208935)
(14.3243 1.14873 0.263542)
(14.5987 1.16309 0.267191)
(14.8106 0.845268 0.185882)
(14.7797 0.354453 0.0754393)
(14.5202 -0.10139 -0.0319409)
(14.2092 -0.384817 -0.0938126)
(13.9571 -0.544077 -0.126381)
(13.7734 -0.627424 -0.142634)
(13.6423 -0.656555 -0.147449)
(13.5557 -0.632144 -0.140753)
(13.5187 -0.555158 -0.122562)
(13.5342 -0.444568 -0.0974056)
(13.5874 -0.329516 -0.0720062)
(13.6551 -0.231085 -0.0507183)
(13.7204 -0.156993 -0.0347804)
(13.7757 -0.106606 -0.0238402)
(13.8191 -0.0741089 -0.0167507)
(13.8518 -0.0536077 -0.0122009)
(13.8763 -0.0401367 -0.00919777)
(13.8949 -0.0309364 -0.00714894)
(13.9093 -0.0244361 -0.00570365)
(13.9207 -0.0197121 -0.00465512)
(13.9298 -0.0162024 -0.00387769)
(13.9372 -0.0135491 -0.00329435)
(13.9434 -0.0115193 -0.00284971)
(13.9484 -0.00997012 -0.00254876)
(13.9541 -0.00891905 -0.00221463)
(14.0098 0.157533 0.0324922)
(14.0639 0.450574 0.09092)
(14.1582 0.710732 0.141203)
(14.3104 0.888832 0.174425)
(14.4982 0.902774 0.176107)
(14.6341 0.701479 0.133267)
(14.6303 0.379704 0.06939)
(14.4914 0.0532676 0.00467817)
(14.2959 -0.189314 -0.0411696)
(14.1107 -0.352321 -0.0709854)
(13.9549 -0.454281 -0.0890765)
(13.8294 -0.506313 -0.0978064)
(13.7345 -0.511179 -0.0977695)
(13.6753 -0.471983 -0.0895577)
(13.6553 -0.401294 -0.075667)
(13.6692 -0.318169 -0.0598097)
(13.7042 -0.239047 -0.0450087)
(13.7471 -0.173335 -0.0328231)
(13.789 -0.124141 -0.0236843)
(13.8251 -0.0895466 -0.0172432)
(13.8543 -0.0659157 -0.0128115)
(13.8772 -0.0496544 -0.00974724)
(13.8952 -0.0382619 -0.00759541)
(13.9094 -0.0301125 -0.00605276)
(13.9206 -0.0241637 -0.00492472)
(13.9298 -0.019742 -0.00408609)
(13.9372 -0.0164018 -0.00345678)
(13.9435 -0.0138411 -0.00297659)
(13.9485 -0.0118623 -0.00264541)
(13.9543 -0.0104469 -0.00228106)
(14.01 0.12048 0.0221958)
(14.0659 0.351814 0.0627446)
(14.1545 0.558078 0.0973381)
(14.2796 0.697881 0.119682)
(14.4192 0.718528 0.121898)
(14.5204 0.592999 0.0983746)
(14.5345 0.374418 0.0603316)
(14.461 0.13582 0.019262)
(14.3378 -0.0643298 -0.0140052)
(14.2044 -0.214925 -0.0384961)
(14.0787 -0.319307 -0.0551536)
(13.9679 -0.381684 -0.0648206)
(13.8762 -0.404377 -0.0679465)
(13.8089 -0.390548 -0.0650953)
(13.77 -0.348798 -0.0577916)
(13.7584 -0.291885 -0.0482177)
(13.7676 -0.23199 -0.0383538)
(13.7892 -0.177697 -0.0295106)
(13.8156 -0.13346 -0.0223285)
(13.8417 -0.0998302 -0.0168704)
(13.8647 -0.0752408 -0.0128635)
(13.8839 -0.0574681 -0.009952)
(13.8997 -0.0445975 -0.00783232)
(13.9125 -0.0351957 -0.00627494)
(13.923 -0.0282466 -0.00511797)
(13.9316 -0.0230448 -0.00424963)
(13.9387 -0.019099 -0.00359467)
(13.9447 -0.0160602 -0.00309299)
(13.9497 -0.0136847 -0.00274146)
(13.9553 -0.0118966 -0.00235519)
(14.0085 0.0890556 0.0151352)
(14.0597 0.269897 0.0437411)
(14.1386 0.436561 0.0686361)
(14.2436 0.551782 0.0850091)
(14.3556 0.578587 0.0880524)
(14.4405 0.501119 0.0749709)
(14.4679 0.350723 0.0515201)
(14.4342 0.174575 0.0244698)
(14.3584 0.0132394 0.000316469)
(14.2642 -0.118122 -0.0190923)
(14.1659 -0.216038 -0.0334112)
(14.0721 -0.280625 -0.0427128)
(13.9886 -0.312843 -0.04718)
(13.9207 -0.315203 -0.0472162)
(13.8728 -0.293653 -0.0437859)
(13.8456 -0.256906 -0.0382406)
(13.8364 -0.213827 -0.0318852)
(13.8404 -0.17145 -0.0257055)
(13.8521 -0.134242 -0.0203057)
(13.8671 -0.103935 -0.0159112)
(13.8824 -0.0803887 -0.0124834)
(13.8965 -0.0625299 -0.0098651)
(13.9088 -0.0491211 -0.00788199)
(13.9192 -0.0390683 -0.00638098)
(13.9281 -0.0315031 -0.00524174)
(13.9356 -0.0257708 -0.0043741)
(13.942 -0.0213881 -0.00371371)
(13.9475 -0.0179914 -0.00320503)
(13.952 -0.0153099 -0.00284389)
(13.9573 -0.0131807 -0.00244554)
(14.0061 0.0633765 0.0103851)
(14.0495 0.203066 0.031078)
(14.1181 0.338437 0.0498054)
(14.2082 0.435108 0.062629)
(14.3041 0.465505 0.066245)
(14.3817 0.419309 0.059053)
(14.4196 0.315713 0.0441738)
(14.4125 0.185893 0.0257897)
(14.3696 0.0586016 0.00803801)
(14.3052 -0.051488 -0.00724043)
(14.2303 -0.138284 -0.0192604)
(14.1529 -0.199723 -0.0277397)
(14.0792 -0.235562 -0.0326487)
(14.0146 -0.24744 -0.034231)
(13.9632 -0.239446 -0.0331037)
(13.927 -0.217564 -0.0301305)
(13.9054 -0.188186 -0.0261904)
(13.8959 -0.156787 -0.0220049)
(13.895 -0.127272 -0.0180753)
(13.8995 -0.101719 -0.0146644)
(13.9066 -0.0807573 -0.0118463)
(13.9146 -0.0641186 -0.00958494)
(13.9224 -0.0511592 -0.00780062)
(13.9298 -0.0411618 -0.0064052)
(13.9363 -0.0334738 -0.00531919)
(13.9422 -0.0275553 -0.00447682)
(13.9473 -0.0229814 -0.00382796)
(13.9519 -0.0194116 -0.00332507)
(13.9558 -0.016578 -0.00296446)
(13.9606 -0.0141902 -0.00256435)
(14.0031 0.0430151 0.00721812)
(14.0378 0.148981 0.0227492)
(14.097 0.257592 0.0375242)
(14.1766 0.337719 0.0481261)
(14.2631 0.368568 0.0520511)
(14.3381 0.343017 0.048277)
(14.3848 0.272879 0.0386007)
(14.3967 0.178805 0.0257205)
(14.3777 0.0811374 0.0124078)
(14.3364 -0.00759622 0.000263213)
(14.281 -0.0808416 -0.00983157)
(14.2185 -0.135563 -0.0174381)
(14.1548 -0.170774 -0.0223964)
(14.095 -0.187316 -0.0248199)
(14.0434 -0.18787 -0.025092)
(14.0024 -0.176516 -0.0237787)
(13.9726 -0.157797 -0.0214868)
(13.9531 -0.13583 -0.0187478)
(13.942 -0.113775 -0.0159629)
(13.9371 -0.0935961 -0.0133827)
(13.9363 -0.076219 -0.011127)
(13.9379 -0.0618325 -0.00922665)
(13.9409 -0.0502195 -0.00766375)
(13.9444 -0.0409914 -0.00639897)
(13.9481 -0.0337231 -0.00538739)
(13.9517 -0.0280224 -0.00458638)
(13.9551 -0.023561 -0.0039606)
(13.9584 -0.0200554 -0.00347285)
(13.9614 -0.0172876 -0.00312094)
(13.9655 -0.0147878 -0.00272881)
(13.9999 0.0273268 0.00506599)
(14.0263 0.105232 0.0173358)
(14.078 0.189176 0.0296541)
(14.1504 0.252789 0.0388642)
(14.2318 0.281132 0.0429603)
(14.3068 0.269155 0.0412476)
(14.361 0.2238 0.0348291)
(14.3874 0.158298 0.0255135)
(14.3867 0.0866459 0.0152475)
(14.3638 0.0186821 0.0053724)
(14.3247 -0.0396846 -0.00325939)
(14.2752 -0.085252 -0.010141)
(14.2209 -0.116708 -0.0150405)
(14.1666 -0.134261 -0.0179634)
(14.1163 -0.139541 -0.0191337)
(14.073 -0.135242 -0.0189278)
(14.0379 -0.124496 -0.0177761)
(14.0112 -0.110271 -0.0160792)
(13.9921 -0.0949642 -0.0141609)
(13.9793 -0.0802118 -0.0122469)
(13.9712 -0.0669345 -0.0104718)
(13.9666 -0.0555082 -0.00890058)
(13.9644 -0.045964 -0.00755333)
(13.9637 -0.0381499 -0.0064244)
(13.964 -0.0318359 -0.00549534)
(13.9649 -0.026779 -0.00474316)
(13.9662 -0.022766 -0.00414603)
(13.9677 -0.0195945 -0.00367832)
(13.9693 -0.0171652 -0.00334015)
(13.9722 -0.0147845 -0.00296403)
(13.9971 0.0154787 0.00346285)
(14.0168 0.0695683 0.0138968)
(14.063 0.129469 0.0248518)
(14.1306 0.175878 0.0332639)
(14.2092 0.199252 0.0375423)
(14.2854 0.195908 0.0371915)
(14.3464 0.169289 0.0329071)
(14.3849 0.127228 0.025944)
(14.3991 0.0787021 0.0177364)
(14.3915 0.0307322 0.00941532)
(14.3663 -0.0119941 0.0017835)
(14.3285 -0.046685 -0.00462805)
(14.2829 -0.0719797 -0.00952699)
(14.2341 -0.0877057 -0.0128347)
(14.1861 -0.09473 -0.0146621)
(14.142 -0.0946971 -0.0152584)
(14.1036 -0.0896261 -0.014938)
(14.0718 -0.0815073 -0.0140145)
(14.0464 -0.072018 -0.0127576)
(14.027 -0.062369 -0.0113717)
(14.0124 -0.053311 -0.00999484)
(14.0018 -0.0452258 -0.00870981)
(13.9943 -0.0382447 -0.00755933)
(13.9891 -0.0323524 -0.00656014)
(13.9855 -0.0274587 -0.00571299)
(13.9832 -0.0234444 -0.00501051)
(13.9817 -0.0202104 -0.00444211)
(13.9809 -0.0176383 -0.00399395)
(13.9807 -0.0158361 -0.00366968)
(13.9815 -0.013899 -0.00331356)
(13.9962 0.00609124 0.00199247)
(14.0107 0.0399438 0.0119904)
(14.0525 0.0757968 0.0223433)
(14.1159 0.104516 0.0304441)
(14.1925 0.120943 0.0351013)
(14.2705 0.122387 0.0358808)
(14.3384 0.109784 0.0331615)
(14.388 0.0870434 0.0278353)
(14.416 0.0590955 0.021004)
(14.4227 0.0302144 0.0136557)
(14.4109 0.00352871 0.00656731)
(14.3844 -0.0189314 0.000300488)
(14.3475 -0.0360639 -0.00479299)
(14.3047 -0.0475506 -0.0085573)
(14.2598 -0.0537483 -0.0110125)
(14.216 -0.055521 -0.0123147)
(14.1758 -0.0540004 -0.0126991)
(14.1403 -0.0503446 -0.0124225)
(14.1101 -0.0455605 -0.0117215)
(14.085 -0.0404022 -0.0107883)
(14.0646 -0.0353603 -0.00976348)
(14.0482 -0.0307086 -0.00874145)
(14.0352 -0.0265673 -0.00777977)
(14.0249 -0.0229671 -0.00691058)
(14.0169 -0.0198882 -0.00614842)
(14.0105 -0.0172909 -0.00549808)
(14.0055 -0.0151657 -0.00495856)
(14.0014 -0.0134308 -0.0045245)
(13.9985 -0.0125289 -0.00421097)
(13.9956 -0.011499 -0.00387132)
(13.9984 0.0005768 0.000892532)
(14.0091 0.0155163 0.0109503)
(14.0443 0.0319122 0.0212901)
(14.1017 0.0466412 0.0297388)
(14.1745 0.0571472 0.0353464)
(14.2536 0.0615933 0.0376146)
(14.3287 0.0594903 0.0366009)
(14.391 0.0518269 0.0328529)
(14.435 0.0404788 0.0272057)
(14.4589 0.0274184 0.0205331)
(14.4636 0.0143163 0.0136096)
(14.4517 0.00241495 0.0070584)
(14.4266 -0.00746792 0.00133264)
(14.3924 -0.0149273 -0.00329525)
(14.353 -0.0199279 -0.00673004)
(14.3119 -0.0227192 -0.00902761)
(14.2717 -0.0237235 -0.0103473)
(14.2341 -0.0234237 -0.0108984)
(14.2003 -0.0222769 -0.0108953)
(14.1704 -0.0206581 -0.0105276)
(14.1444 -0.0188393 -0.00994565)
(14.122 -0.0169979 -0.0092594)
(14.1028 -0.0152368 -0.00854379)
(14.0864 -0.0136084 -0.00784732)
(14.0724 -0.0121366 -0.00719967)
(14.0603 -0.0108227 -0.00661764)
(14.05 -0.00970027 -0.00611257)
(14.0407 -0.00870153 -0.00568284)
(14.0337 -0.00819878 -0.00536869)
(14.0224 -0.0078345 -0.00498295)
(13.9143 0.0600408 0.303832)
(13.5032 0.20344 1.03023)
(12.6329 0.222342 2.05001)
(10.7485 0.267127 4.53605)
(1.5985 -0.030874 -1.05368)
(8.74649 -0.174924 -2.97713)
(9.91742 -0.120298 -2.08583)
(11.0081 -0.0951542 -1.65539)
(12.0023 -0.0718289 -1.22364)
(12.8138 -0.04109 -0.672638)
(13.3323 -0.0192677 -0.312492)