/*--------------------------------*- C++ -*----------------------------------*\
  =========                 |
  \\      /  F ield         | OpenFOAM: The Open Source CFD Toolbox
   \\    /   O peration     | Website:  https://openfoam.org
    \\  /    A nd           | Version:  7
     \\/     M anipulation  |
\*---------------------------------------------------------------------------*/
FoamFile
{
    version     2.0;
    format      ascii;
    class       volScalarField;
    location    "800";
    object      k;
}
// * * * * * * * * * * * * * * * * * * * * * * * * * * * * * * * * * * * * * //

dimensions      [0 2 -2 0 0 0 0];

internalField   nonuniform List<scalar> 
27370
(
348.946
348.705
350.048
309.662
17.8267
34.7865
50.6595
65.3274
76.9013
84.8901
89.7867
92.3195
93.1377
92.772
91.3518
89.2359
86.845
84.2875
81.6418
78.9628
76.2899
73.6529
71.0805
68.6371
66.6328
348.686
347.41
348.329
324.556
21.463
46.9286
65.1736
77.6768
86.0902
91.4109
94.3693
95.5576
95.4542
94.6645
93.0097
90.4678
87.7636
84.9705
82.1442
79.3255
76.5437
73.8214
71.1819
68.6855
66.6423
348.21
345.454
344.8
335.398
2.50245
57.7268
84.0801
96.0287
101.572
103.933
104.498
103.916
102.531
100.567
98.4643
95.835
92.5964
89.3608
86.1584
83.0144
79.9475
76.971
74.0952
71.3343
68.7415
66.6263
347.638
343.225
338.309
332.283
298.641
20.7113
118.744
128.727
130.265
128.908
126.083
122.534
118.676
114.716
110.748
106.812
103.078
99.1069
95.0897
91.2385
87.5499
84.0212
80.6495
77.4308
74.3621
71.4472
68.7307
66.5204
347.066
341.126
334.432
328.226
311.827
279.85
232.665
211.527
193.29
178.466
166.339
156.044
146.995
138.865
131.482
124.735
118.536
112.817
107.514
102.165
97.4253
92.9842
88.8185
84.9048
81.2226
77.7537
74.484
71.4071
68.5579
66.2407
346.555
339.35
331.226
320.655
306.052
290.106
265.102
239.027
218.874
201.066
185.538
171.975
160.037
149.442
139.97
131.454
123.76
116.781
110.445
104.571
99.202
94.2547
89.6752
85.4232
81.4652
77.7715
74.3189
71.093
68.1193
65.693
346.122
337.878
328.636
317.512
303.611
286.333
266.952
246.741
227.573
209.91
193.907
179.528
166.641
155.081
144.692
135.331
126.875
119.218
112.269
105.913
100.107
94.7851
89.8911
85.3767
81.2011
77.3288
73.7306
70.3858
67.3095
64.7798
345.762
336.615
326.381
314.555
300.678
284.593
266.91
248.521
230.467
213.347
197.461
182.905
169.666
157.67
146.815
136.993
128.099
120.036
112.714
106.043
99.9555
94.3891
89.2861
84.5963
80.2757
76.2851
72.5918
69.1706
66.0252
63.4026
345.457
335.441
324.167
311.428
297.097
281.234
264.264
246.793
229.513
212.929
197.342
182.899
169.633
157.52
146.499
136.488
127.4
119.147
111.647
104.82
98.5943
92.9087
87.7053
82.9334
78.5477
74.5078
70.779
67.3328
64.1616
61.4603
345.19
334.21
321.659
307.662
292.419
276.168
259.274
242.186
225.376
209.226
193.988
179.803
166.712
154.705
143.744
133.762
124.685
116.432
108.927
102.096
95.8698
90.188
84.9936
80.2363
75.8713
71.8576
68.16
64.7481
61.605
58.8421
344.944
332.713
318.369
302.563
285.893
268.773
251.54
234.506
217.979
202.21
187.372
173.567
160.814
149.105
138.403
128.649
119.772
111.698
104.355
97.6721
91.5845
86.0327
80.9616
76.3221
72.0705
68.1663
64.5752
61.2649
58.2176
55.4149
344.702
330.553
313.401
294.906
276.196
257.81
239.995
222.887
206.617
191.291
176.983
163.727
151.514
140.319
130.096
120.782
112.31
104.607
97.6054
91.237
85.4402
80.1581
75.3378
70.9324
66.8999
63.2009
59.8041
56.6721
53.8093
50.9975
344.434
326.755
304.748
282.204
260.796
240.933
222.569
205.544
189.761
175.144
161.656
149.253
137.887
127.506
118.049
109.449
101.637
94.544
88.1036
82.2526
76.9329
72.0909
67.6774
63.6482
59.9649
56.5886
53.4962
50.6333
48.0759
45.3075
343.977
318.197
287.102
258.753
234.369
213.44
195.165
178.927
164.322
151.066
139.005
128.02
118.024
108.938
100.69
93.2095
86.4304
80.2877
74.7204
69.6714
65.088
60.9227
57.1313
53.6746
50.5197
47.6271
44.9952
42.5166
40.4369
37.8186
341.91
291.587
243.968
209.576
184.12
164.494
148.512
134.997
123.236
112.795
103.432
94.9926
87.3738
80.4764
74.2373
68.5984
63.5041
58.9018
54.7418
50.9787
47.5699
44.4789
41.6698
39.1126
36.786
34.6406
32.7353
30.8257
29.4764
27.2711
317.06
174.861
118.147
91.1382
75.6272
65.5163
58.1275
52.2838
47.4098
43.1966
39.4815
36.1691
33.1994
30.5384
28.1426
25.982
24.0325
22.2727
20.6836
19.2468
17.9476
16.7674
15.7026
14.7199
13.8541
13.0064
12.3338
11.5479
11.0607
10.2172
348.686
347.413
348.338
324.454
20.7923
46.4943
64.9695
77.5858
86.0478
91.3899
94.3578
95.5509
95.4501
94.6616
93.0072
90.466
87.7621
84.9694
82.1433
79.3247
76.5431
73.8209
71.1814
68.6851
66.6419
348.444
346.36
346.74
330.72
31.2923
61.2253
78.2078
88.0205
93.8027
97.0082
98.4006
98.4693
97.568
96.3969
94.5107
91.5992
88.613
85.6039
82.6105
79.6617
76.7779
73.9754
71.2726
68.726
66.6456
348.005
344.658
343.542
333.588
104.623
17.1387
78.9663
97.7818
105.683
108.714
109.296
108.536
106.949
104.809
102.28
99.896
97.0881
93.5523
90.0854
86.702
83.4155
80.2361
77.1703
74.2236
71.406
68.7678
66.6186
347.479
342.632
337.197
331.663
306.46
92.4672
60.1222
138.896
140.635
138.339
134.754
130.504
125.956
121.349
116.808
112.383
108.086
104.174
100.079
95.8408
91.8138
87.984
84.3416
80.8783
77.5856
74.4573
71.4942
68.7386
66.4984
346.95
340.726
333.753
327.596
312.052
283.465
243.748
220.084
199.879
183.764
170.607
159.493
149.797
141.153
133.351
126.256
119.768
113.809
108.306
102.872
97.9802
93.4125
89.142
85.1418
81.3884
77.861
74.5434
71.4272
68.5456
66.2027
346.473
339.082
330.774
320.144
305.813
290.652
266.827
241.42
221.405
203.519
187.797
173.991
161.8
150.963
141.268
132.549
124.674
117.535
111.057
105.062
99.5892
94.5533
89.8987
85.5833
81.5718
77.8334
74.3435
71.0867
68.0868
65.6392
346.066
337.697
328.336
317.161
303.356
286.415
267.472
247.664
228.715
211.131
195.113
180.663
167.675
156.003
145.498
136.025
127.464
119.709
112.67
106.236
100.36
94.9776
90.0306
85.4705
81.2559
77.3504
73.7241
70.3556
67.2591
64.7119
345.723
336.491
326.175
314.305
300.462
284.521
267.047
248.874
230.979
213.95
198.098
183.535
170.262
158.215
147.3
137.416
128.461
120.338
112.961
106.239
100.105
94.4975
89.358
84.6363
80.2878
76.2733
72.5594
69.1206
65.9599
63.3232
345.43
335.353
324.019
311.24
296.912
281.111
264.243
246.892
229.714
213.2
197.652
183.223
169.952
157.819
146.769
136.726
127.603
119.315
111.781
104.921
98.6663
92.9535
87.7255
82.9317
78.5268
74.4701
70.7266
67.2678
64.0855
61.373
345.172
334.147
321.549
307.515
292.258
276.027
259.182
242.159
225.412
209.312
194.107
179.941
166.856
154.845
143.872
133.875
124.779
116.506
108.982
102.131
95.8861
90.1869
84.9765
80.2048
75.8269
71.8017
68.0941
64.6735
61.5226
58.751
344.931
332.667
318.285
302.443
285.75
268.628
251.413
234.413
217.923
202.188
187.376
173.589
160.847
149.141
138.438
128.679
119.793
111.71
104.356
97.662
91.5635
86.0013
80.9203
76.2718
72.0119
68.1002
64.5025
61.1863
58.1339
55.3244
344.694
330.52
313.335
294.804
276.066
257.666
239.852
222.759
206.51
191.207
176.919
163.68
151.479
140.292
130.073
120.76
112.286
104.58
97.5739
91.2003
85.3979
80.1101
75.2842
70.8735
66.836
63.1323
59.7313
56.5956
53.7297
50.9127
344.429
326.731
304.696
282.118
260.677
240.793
222.419
205.398
189.627
175.027
161.556
149.168
137.815
127.445
117.995
109.4
101.591
94.4986
88.0578
82.2054
76.8835
72.039
67.6226
63.5906
59.9044
56.5254
53.4305
50.5649
48.0062
45.2334
343.974
318.181
287.06
258.678
234.26
213.306
195.017
178.779
164.181
150.938
138.892
127.923
117.941
108.867
100.628
93.155
86.3809
80.2416
74.6763
69.628
65.0445
60.8785
57.0858
53.6277
50.4713
47.5769
44.9435
42.4627
40.3829
37.7605
341.909
291.576
243.934
209.511
184.024
164.375
148.381
134.864
123.11
112.68
103.332
94.9074
87.302
80.4171
74.1883
68.5575
63.4691
58.871
54.7138
50.9523
47.5441
44.4531
41.6435
39.0854
36.7578
34.6109
32.7049
30.7928
29.4447
27.2349
317.06
174.856
118.127
91.1044
75.5796
65.4593
58.0654
52.2217
47.3516
43.1447
39.437
36.1322
33.1695
30.514
28.1231
25.9665
24.02
22.2625
20.675
19.2392
17.9406
16.7606
15.6959
14.7128
13.8469
12.9983
12.3262
11.538
11.0532
10.2068
348.212
345.461
344.817
335.455
3.36926
57.5191
83.7259
95.7924
101.436
103.855
104.453
103.889
102.513
100.555
98.4559
95.8286
92.5915
89.3569
86.1553
83.0119
79.9454
76.9692
74.0937
71.333
68.7403
66.6252
348.006
344.661
343.551
333.584
95.2038
15.563
78.8234
97.6126
105.562
108.639
109.251
108.508
106.932
104.798
102.272
99.8907
97.0842
93.5492
90.083
86.7
83.4139
80.2348
77.1692
74.2226
71.4051
68.7671
66.6179
347.642
343.274
341.03
333.004
292.477
108.763
122.555
125.847
125.583
123.537
120.573
117.167
113.559
109.865
106.142
102.812
99.2403
95.2023
91.3386
87.6402
84.1031
80.7239
77.4984
74.4238
71.5037
68.783
66.5708
347.194
341.601
335.323
329.685
311.065
263.324
198.004
182.995
173.766
163.57
154.805
147.1
140.036
133.445
127.275
121.501
116.088
111.002
106.423
101.748
97.1373
92.8062
88.7287
84.8851
81.2584
77.833
74.5971
71.5468
68.7199
66.4241
346.741
340.008
332.451
322.306
311.71
288.429
259.211
232.812
211.178
193.425
178.691
166.194
155.336
145.728
137.121
129.35
122.29
115.849
109.941
104.092
98.9357
94.1458
89.6898
85.5354
81.6544
78.022
74.6177
71.4301
68.4894
66.0989
346.325
338.593
329.941
319.249
305.147
286.957
266.186
245.109
225.371
207.473
191.518
177.365
164.786
153.558
143.493
134.433
126.249
118.834
112.109
105.903
100.247
95.0548
90.2663
85.8374
81.73
77.911
74.3539
71.0409
67.9937
65.5063
345.962
337.363
327.777
316.507
302.823
286.426
268.109
249.073
230.532
213.124
197.118
182.574
169.432
157.576
146.877
137.213
128.469
120.544
113.35
106.777
100.778
95.2869
90.2454
85.6036
81.3189
77.3537
73.6769
70.2658
67.1326
64.5528
345.651
336.257
325.784
313.823
300.021
284.311
267.173
249.384
231.776
214.919
199.14
184.578
171.255
159.127
148.114
138.124
129.062
120.836
113.362
106.549
100.334
94.6533
89.449
84.6702
80.2722
76.2149
72.4643
68.9942
65.8061
63.1432
345.38
335.186
323.734
310.87
296.534
280.827
264.127
246.983
229.986
213.602
198.129
183.731
170.456
158.294
147.198
137.099
127.917
119.569
111.976
105.06
98.7529
92.9924
87.7214
82.8892
78.4504
74.364
70.5948
67.1139
63.9119
61.1787
345.137
334.026
321.333
307.218
291.924
275.718
258.95
242.035
225.398
209.388
194.246
180.116
167.046
155.032
144.042
134.02
124.894
116.589
109.031
102.147
95.8704
90.1416
84.9039
80.1075
75.7073
71.6626
67.9378
64.5023
61.3381
58.5504
344.907
332.577
318.117
302.198
285.451
268.314
251.123
234.175
217.748
202.073
187.31
173.558
160.838
149.142
138.439
128.673
119.776
111.678
104.307
97.5959
91.4799
85.9007
80.8037
76.1402
71.8668
67.9429
64.3344
61.0088
57.9482
55.1265
344.677
330.454
313.202
294.597
275.795
257.356
239.535
222.46
206.246
190.982
176.732
163.525
151.349
140.179
129.97
120.662
112.188
104.479
97.4675
91.0869
85.2767
79.9807
75.1466
70.7278
66.6828
62.9722
59.565
56.4235
53.5533
50.7273
344.418
326.684
304.59
281.939
260.43
240.494
222.096
205.074
189.32
174.747
161.307
148.948
137.622
127.273
117.84
109.257
101.455
94.3673
87.9283
82.0758
76.7524
71.9053
67.4858
63.4503
59.7605
56.3779
53.2798
50.4109
47.8504
45.0712
343.969
318.149
286.975
258.523
234.036
213.027
194.705
178.457
163.869
150.647
138.629
127.688
117.733
108.683
100.464
93.0075
86.2455
80.115
74.5556
69.5111
64.9296
60.7642
56.9712
53.512
50.3542
47.458
44.8231
42.3399
40.26
37.6328
341.907
291.557
243.867
209.383
183.833
164.135
148.11
134.585
122.839
112.429
103.106
94.7089
87.1291
80.2685
74.0604
68.4465
63.3713
58.783
54.6328
50.876
47.4708
44.3813
41.5722
39.0138
36.6855
34.5372
32.6304
30.7159
29.3681
27.1547
317.06
174.847
118.092
91.042
75.4899
65.3493
57.9432
52.0971
47.2319
43.0351
39.3403
36.0491
33.0995
30.4546
28.0732
25.9245
23.9844
22.232
20.6481
19.2149
17.9181
16.7392
15.675
14.6919
13.826
12.9768
12.3046
11.5153
11.0302
10.1828
347.64
343.233
338.33
332.32
298.385
20.3815
118.45
128.511
130.066
128.749
125.97
122.457
118.624
114.68
110.722
106.794
103.065
99.0967
95.0816
91.2319
87.5445
84.0167
80.6457
77.4275
74.3593
71.4447
68.7285
66.5184
347.48
342.638
337.211
331.689
306.414
93.9367
59.2175
138.599
140.462
138.199
134.642
130.422
125.898
121.309
116.78
112.363
108.072
104.164
100.071
95.8344
91.8085
87.9796
84.338
80.8752
77.583
74.455
71.4922
68.7368
66.4968
347.194
341.603
335.329
329.697
311.073
262.96
197.885
182.872
173.68
163.507
154.753
147.057
140.003
133.42
127.257
121.487
116.078
110.994
106.418
101.744
97.1339
92.8033
88.7263
84.8831
81.2566
77.8315
74.5958
71.5456
68.7189
66.4231
346.842
340.363
333.096
323.12
312.023
286.463
252.553
223.887
202.821
186.021
172.431
161.061
151.2
142.435
134.531
127.346
120.777
114.74
109.23
103.698
98.6514
93.9557
89.5765
85.4848
81.6546
78.0627
74.691
71.5298
68.6113
66.2415
346.477
339.119
330.891
320.503
306.159
291.171
267.368
243.474
222.084
203.568
187.668
173.922
161.895
151.247
141.732
133.172
125.431
118.405
111.994
105.512
100.037
94.9758
90.291
85.9451
81.9047
78.14
74.6263
71.3483
68.3316
65.8776
346.134
337.967
328.873
317.988
304.292
287.319
268.159
248.378
229.319
211.647
195.592
181.146
168.184
156.543
146.069
136.621
128.078
120.338
113.318
106.856
100.979
95.5933
90.639
86.0683
81.8406
77.9206
74.2788
70.895
67.7873
65.2466
345.825
336.919
327.029
315.593
302.044
286.195
268.644
250.379
232.365
215.233
199.309
184.705
171.414
159.362
148.446
138.562
129.604
121.477
114.096
107.354
101.203
95.5791
90.4206
85.6774
81.3056
77.2661
73.5264
70.062
66.8824
64.259
345.553
335.938
325.24
313.131
299.345
283.871
267.121
249.763
232.505
215.88
200.218
185.683
172.321
160.109
148.987
138.877
129.691
121.343
113.751
106.83
100.516
94.7466
89.4631
84.6146
80.1559
76.0461
72.2507
68.7423
65.5203
62.8224
345.311
334.952
323.324
310.322
295.941
280.316
263.801
246.892
230.114
213.897
198.53
184.183
170.916
158.73
147.587
137.429
128.18
119.762
112.101
105.119
98.7501
92.9332
87.6111
82.7332
78.2541
74.1327
70.3332
66.8263
63.601
60.8403
345.087
333.85
321.014
306.768
291.394
275.186
258.49
241.694
225.185
209.288
194.231
180.154
167.112
155.103
144.102
134.057
124.9
116.561
108.966
102.046
95.7343
89.9725
84.7042
79.8801
75.4552
71.3886
67.6449
64.1931
61.0144
58.2058
344.872
332.445
317.862
301.817
284.97
267.784
250.598
233.698
217.341
201.738
187.039
173.336
160.651
148.976
138.282
128.515
119.612
111.501
104.116
97.389
91.2564
85.6608
80.548
75.87
71.5831
67.6474
64.0285
60.6938
57.6257
54.7886
344.654
330.354
312.996
294.27
275.356
256.84
238.983
221.914
205.732
190.514
176.312
163.148
151.01
139.869
129.681
120.388
111.922
104.217
97.2049
90.822
85.0078
79.7068
74.8673
70.443
66.3926
62.6771
59.2654
56.12
53.2475
50.4108
344.403
326.611
304.424
281.657
260.031
240.002
221.547
204.507
188.763
174.219
160.817
148.499
137.212
126.897
117.492
108.932
101.148
94.0734
87.6438
81.7977
76.4783
71.6336
67.2151
63.1798
59.4897
56.1065
53.0078
50.1378
47.5787
44.7924
343.961
318.1
286.844
258.282
233.679
212.574
194.188
177.913
163.325
150.125
138.141
127.24
117.324
108.311
100.124
92.6945
85.9552
79.8427
74.2975
69.2638
64.6904
60.531
56.7423
53.2861
50.1304
47.2355
44.6019
42.1183
40.0418
37.4099
341.904
291.527
243.765
209.187
183.538
163.757
147.677
134.129
122.384
111.994
102.704
94.3429
86.7993
79.9745
73.7983
68.2115
63.1588
58.5885
54.4525
50.7065
47.3094
44.2259
41.4211
38.8656
36.5394
34.3921
32.4869
30.5709
29.227
27.009
317.059
174.834
118.043
90.9516
75.3576
65.1843
57.7563
51.9017
47.0393
42.8534
39.1745
35.9012
32.9695
30.3399
27.9725
25.8362
23.9065
22.1625
20.5853
19.1573
17.8644
16.6883
15.6263
14.6445
13.7799
12.9304
12.2602
11.4676
10.9896
10.1334
347.067
341.132
334.447
328.251
311.854
279.727
232.142
211.257
193.121
178.336
166.229
155.95
146.918
138.805
131.436
124.699
118.508
112.796
107.497
102.152
97.4144
92.9751
88.8108
84.8983
81.217
77.7488
74.4798
71.4034
68.5546
66.2376
346.951
340.731
333.765
327.617
312.081
284.202
243.434
219.707
199.744
183.665
170.522
159.42
149.736
141.104
133.312
126.226
119.745
113.791
108.292
102.861
97.9709
93.4047
89.1354
85.1362
81.3835
77.8568
74.5397
71.4239
68.5426
66.2
346.741
340.011
332.458
322.318
311.727
288.397
259.143
232.75
211.122
193.374
178.644
166.152
155.3
145.698
137.097
129.33
122.275
115.837
109.93
104.084
98.9291
94.1403
89.685
85.5312
81.6508
78.0188
74.615
71.4277
68.4872
66.0969
346.478
339.121
330.893
320.507
306.163
291.168
267.355
243.459
222.069
203.551
187.651
173.907
161.881
151.235
141.721
133.163
125.424
118.399
111.99
105.508
100.033
94.9729
90.2885
85.943
81.9028
78.1383
74.6249
71.347
68.3305
65.8765
346.197
338.187
329.272
318.535
304.904
292.037
271.711
250.434
230.192
211.789
195.393
180.862
167.962
156.458
146.148
136.869
128.487
120.893
113.994
106.788
100.996
95.6608
90.7427
86.2005
81.9957
78.0938
74.4662
71.0936
67.9961
65.4695
345.924
337.277
327.694
316.528
303.085
287.038
269.198
250.615
232.346
215.057
199.066
184.466
171.222
159.241
148.406
138.603
129.723
121.669
114.362
107.65
101.55
95.9691
90.8457
86.1299
81.779
77.7549
74.0259
70.5691
67.3978
64.7962
345.671
336.408
326.155
314.478
300.979
285.557
268.684
251.123
233.656
216.862
201.086
186.486
173.098
160.888
149.784
139.698
130.538
122.217
114.653
107.745
101.446
95.688
90.4121
85.5668
81.107
76.9926
73.1895
69.6716
66.4445
63.7713
345.44
335.555
324.574
312.244
298.404
283.095
266.68
249.72
232.813
216.444
200.931
186.457
173.086
160.816
149.605
139.389
130.09
121.628
113.926
106.902
100.493
94.6375
89.277
84.3607
79.8428
75.6823
71.8437
68.2987
65.0435
62.306
345.227
334.66
322.8
309.591
295.096
279.493
263.118
246.417
229.852
213.811
198.57
184.294
171.058
158.867
147.694
137.49
128.186
119.71
111.988
104.948
98.5236
92.6556
87.2872
82.368
77.8526
73.6997
69.8736
66.3441
63.0979
60.3067
345.026
333.625
320.59
306.147
290.625
274.355
257.685
240.979
224.588
208.805
193.842
179.835
166.837
154.851
143.855
133.802
124.628
116.266
108.646
101.699
95.3611
89.5739
84.2822
79.4368
74.9931
70.9102
67.1527
63.6894
60.5002
57.6692
344.828
332.27
317.514
301.279
284.263
266.965
249.736
232.852
216.548
201.014
186.384
172.742
160.107
148.469
137.801
128.05
119.154
111.046
103.66
96.9279
90.7894
85.187
80.0673
75.3827
71.0899
67.1491
63.5261
60.1883
57.1181
54.2657
344.622
330.219
312.709
293.799
274.706
256.049
238.108
221.009
204.839
189.66
175.508
162.397
150.31
139.215
129.065
119.802
111.36
103.674
96.6765
90.3043
84.4981
79.2031
74.368
69.9473
65.8999
62.187
58.7781
55.6351
52.7669
49.921
344.383
326.511
304.189
281.247
259.439
239.256
220.694
203.6
187.845
173.321
159.959
147.69
136.454
126.188
116.829
108.308
100.558
93.5124
87.1068
81.2805
75.9777
71.1466
66.7396
62.7139
59.0321
55.6561
52.5642
49.6994
47.1487
44.3582
343.949
318.031
286.656
257.933
233.157
211.9
193.404
177.068
162.459
149.273
137.323
126.468
116.603
107.641
99.5023
92.1161
85.4149
79.3353
73.8181
68.808
64.2545
60.1117
56.337
52.8926
49.747
46.8606
44.2353
41.7568
39.6907
37.0571
341.901
291.486
243.626
208.914
183.121
163.216
147.044
133.445
121.686
111.309
102.05
93.7316
86.2334
79.456
73.3244
67.7778
62.7601
58.2197
54.1089
50.3839
47.0042
43.935
41.1421
38.5964
36.2786
34.1374
32.2397
30.3249
28.9944
26.7673
317.059
174.817
117.98
90.8337
75.1816
64.9595
57.4957
51.6224
46.756
42.5781
38.9149
35.6616
32.7513
30.1413
27.7928
25.6737
23.7592
22.0282
20.4621
19.0432
17.7579
16.5879
15.531
14.5531
13.6923
12.8441
12.1811
11.3704
10.9749
9.99194
346.556
339.355
331.236
320.672
306.067
290.09
265.039
238.968
218.811
201.004
185.478
171.919
159.986
149.398
139.933
131.423
123.734
116.76
110.427
104.555
99.1888
94.2434
89.6655
85.4148
81.4578
77.7651
74.3132
71.088
68.1147
65.6888
346.474
339.086
330.783
320.157
305.828
290.649
266.772
241.38
221.359
203.47
187.748
173.945
161.759
150.926
141.236
132.522
124.651
117.516
111.04
105.048
99.5775
94.5432
89.89
85.5757
81.5652
77.8276
74.3384
71.082
68.0827
65.6354
346.326
338.596
329.946
319.258
305.156
286.952
266.169
245.085
225.343
207.442
191.486
177.334
164.757
153.532
143.47
134.414
126.232
118.82
112.097
105.892
100.238
95.0467
90.2593
85.8313
81.7246
77.9062
74.3496
71.0371
67.9903
65.5031
346.134
337.968
328.876
317.993
304.296
287.318
268.151
248.367
229.305
211.63
195.574
181.129
168.167
156.528
146.055
136.609
128.068
120.328
113.31
106.849
100.973
95.5879
90.6342
86.0641
81.8369
77.9173
74.2758
70.8923
67.7849
65.2444
345.924
337.278
327.695
316.529
303.087
287.037
269.196
250.611
232.341
215.051
199.059
184.459
171.215
159.234
148.4
138.598
129.718
121.665
114.358
107.646
101.547
95.9665
90.8433
86.1278
81.7771
77.7532
74.0244
70.5677
67.3965
64.795
345.712
336.57
326.466
314.932
301.522
286.093
269.162
251.516
233.968
217.112
201.298
186.681
173.291
161.088
149.996
139.924
130.779
122.472
114.922
108.021
101.73
95.9802
90.7099
85.8682
81.4103
77.2962
73.492
69.9724
66.7448
64.0804
345.51
335.858
325.187
313.178
299.588
284.408
268.014
251.005
234.019
217.565
201.979
187.446
174.032
161.732
150.499
140.266
130.953
122.479
114.767
107.729
101.307
95.4392
90.0656
85.1353
80.6027
76.4267
72.5721
69.0112
65.7443
63.0199
345.318
335.123
323.794
311.154
297.145
281.872
265.666
249.006
232.399
216.272
200.925
186.543
173.204
160.919
149.661
139.379
130.002
121.459
113.676
106.576
100.095
94.174
88.7549
83.787
79.2249
75.0268
71.1571
67.5863
64.3063
61.5287
345.134
334.317
322.156
308.652
293.94
278.251
261.921
245.355
228.958
213.077
197.965
183.782
170.602
158.437
147.267
137.049
127.72
119.213
111.457
104.382
97.9246
92.0254
86.6286
81.6843
77.1475
72.9768
69.1363
65.5954
62.3378
59.5167
344.955
333.349
320.049
305.32
289.551
273.122
256.394
239.714
223.399
207.713
192.846
178.92
165.988
154.05
143.087
133.054
123.891
115.533
107.912
100.961
94.6183
88.8255
83.5283
78.6781
74.2306
70.1454
66.3868
62.9237
59.7344
56.8829
344.774
332.047
317.054
300.541
283.262
265.759
248.406
231.477
215.189
199.706
185.144
171.572
159.004
147.427
136.81
127.101
118.24
110.16
102.796
96.0824
89.9591
84.3696
79.2612
74.5867
70.3034
66.3716
62.7576
59.4285
56.3675
53.5032
344.583
330.042
312.318
293.141
273.775
254.887
236.784
219.597
203.403
188.244
174.14
161.091
149.071
138.043
127.955
118.748
110.356
102.714
95.7544
89.4154
83.6382
78.3687
73.5562
69.1557
65.1267
61.4306
58.0374
54.9087
52.0565
49.2065
344.357
326.376
303.862
280.667
258.589
238.166
219.425
202.222
186.42
171.899
158.572
146.359
135.19
124.994
115.702
107.245
99.5539
92.5607
86.202
80.4173
75.1512
70.3526
65.9745
61.9745
58.3158
54.9606
51.888
49.0397
46.5088
43.721
343.934
317.937
286.396
257.441
232.413
210.929
192.258
175.812
161.15
147.96
136.041
125.238
115.437
106.543
98.473
91.1519
84.5108
78.4857
73.0172
68.0504
63.535
59.4258
55.6808
52.2627
49.1407
46.2748
43.669
41.206
39.159
36.5348
341.895
291.432
243.437
208.542
182.547
162.459
146.145
132.458
120.657
110.28
101.049
92.7758
85.3324
78.6155
72.5441
67.0543
62.0886
57.5949
53.5253
49.8364
46.4883
43.4465
40.6776
38.1526
35.8535
33.7278
31.8455
29.9431
28.6207
26.4163
317.058
174.798
117.902
90.685
74.9544
64.6627
57.1441
51.2366
46.3549
42.1783
38.5281
35.2952
32.409
29.8231
27.4989
25.403
23.5099
21.7982
20.2491
18.845
17.5727
16.4137
15.3666
14.3967
13.5433
12.7022
12.0395
11.2563
10.7764
9.93554
346.123
337.882
328.643
317.522
303.619
286.328
266.933
246.71
227.535
209.868
193.864
179.486
166.601
155.044
144.659
135.302
126.85
119.196
112.249
105.896
100.092
94.7721
89.8797
85.3666
81.1922
77.3209
73.7235
70.3794
67.3038
64.7744
346.067
337.7
328.341
317.17
303.363
286.412
267.457
247.64
228.684
211.095
195.076
180.626
167.64
155.97
145.468
135.999
127.44
119.688
112.653
106.22
100.346
94.9656
90.0201
85.4612
81.2476
77.343
73.7174
70.3497
67.2537
64.7068
345.963
337.365
327.781
316.513
302.828
286.424
268.098
249.056
230.51
213.099
197.091
182.547
169.405
157.55
146.854
137.192
128.45
120.528
113.335
106.764
100.766
95.2768
90.2365
85.5957
81.3118
77.3474
73.6712
70.2607
67.1279
64.5484
345.826
336.92
327.032
315.597
302.047
286.194
268.638
250.369
232.351
215.217
199.291
184.687
171.396
159.344
148.43
138.547
129.59
121.465
114.085
107.344
101.195
95.5715
90.4138
85.6713
81.3001
77.2612
73.5219
70.058
66.8788
64.2556
345.671
336.409
326.156
314.479
300.98
285.556
268.681
251.118
233.649
216.853
201.076
186.476
173.088
160.878
149.774
139.689
130.53
122.21
114.646
107.739
101.44
95.683
90.4076
85.5627
81.1033
76.9893
73.1865
69.6689
66.442
63.7689
345.51
335.858
325.188
313.178
299.589
284.407
268.013
251.003
234.016
217.561
201.975
187.442
174.028
161.728
150.495
140.262
130.949
122.476
114.764
107.726
101.305
95.4368
90.0634
85.1334
80.6009
76.4251
72.5706
69.0098
65.743
63.0187
345.349
335.275
324.115
311.658
297.804
282.634
266.479
249.829
233.204
217.047
201.666
187.249
173.879
161.566
150.282
139.977
130.579
122.017
114.215
107.097
100.6
94.6633
89.229
84.2465
79.6702
75.4583
71.5751
67.9915
64.7015
61.9289
345.191
334.643
322.881
309.812
295.482
280.072
263.907
247.409
231.012
215.086
199.905
185.64
172.377
160.131
148.882
138.589
129.19
120.617
112.799
105.666
99.1543
93.2039
87.7588
82.7691
78.1893
73.9778
70.0986
66.5215
63.2334
60.4189
345.034
333.917
321.367
307.446
292.376
276.455
260.036
243.496
227.196
211.44
196.453
182.377
169.286
157.188
146.064
135.878
126.571
118.076
110.327
103.257
96.8019
90.9045
85.5094
80.5677
76.0346
71.8689
68.035
64.5017
61.2494
58.4025
344.876
333.013
319.358
304.222
288.071
271.348
254.445
237.699
221.4
205.78
191.003
177.172
164.331
152.475
141.583
131.61
122.499
114.185
106.601
99.6822
93.3678
87.6004
82.3264
77.4977
73.0708
69.0052
65.266
61.8217
58.6494
55.7826
344.712
331.766
316.445
299.535
281.858
264.023
246.439
229.384
213.056
197.597
183.098
169.607
157.13
145.644
135.113
125.484
116.695
108.681
101.375
94.7141
88.638
83.0912
78.0216
73.3827
69.1322
65.2311
61.6459
58.3438
55.3094
52.44
344.536
329.811
311.785
292.222
272.455
253.213
234.847
217.497
201.229
186.065
172.004
159.028
147.096
136.164
126.172
117.057
108.751
101.187
94.3004
88.0272
82.3097
77.0942
72.3309
67.9751
63.9871
60.3287
56.9705
53.8735
51.055
48.2092
344.323
326.194
303.407
279.844
257.374
236.597
217.582
200.2
184.306
169.766
156.47
144.323
133.24
123.141
113.949
105.589
97.9898
91.0826
84.803
79.0905
73.8899
69.1507
64.8264
60.8752
57.261
53.9461
50.9112
48.0954
45.6018
42.8263
343.915
317.808
286.027
256.741
231.354
209.541
190.611
173.992
159.237
146.024
134.131
123.389
113.669
104.868
96.8934
89.6669
83.116
77.175
71.7838
66.8873
62.4357
58.3841
54.6911
51.3197
48.2403
45.4123
42.8427
40.4084
38.3977
35.7912
341.888
291.357
243.177
208.026
181.748
161.401
144.882
131.057
119.181
108.786
99.5776
91.3555
83.9792
77.34
71.349
65.9382
61.0472
56.6227
52.6161
48.9843
45.6872
42.6912
39.9633
37.4747
35.2091
33.1116
31.2586
29.3756
28.0817
25.8952
317.058
174.776
117.805
90.4943
74.6574
64.2679
56.6697
50.7079
45.7964
41.6123
37.971
34.7585
31.8996
29.3433
27.0502
24.9853
23.1217
21.4374
19.9134
18.5319
17.2799
16.1388
15.1081
14.1519
13.3121
12.481
11.8303
11.0539
10.5844
9.75127
345.762
336.618
326.385
314.56
300.682
284.589
266.898
248.5
230.44
213.316
197.427
182.871
169.632
157.638
146.785
136.965
128.074
120.013
112.694
106.025
99.9394
94.3747
89.2733
84.5848
80.2653
76.2758
72.5834
69.163
66.0183
63.3961
345.724
336.493
326.178
314.309
300.466
284.518
267.037
248.856
230.956
213.923
198.068
183.504
170.231
158.185
147.273
137.391
128.438
120.318
112.942
106.222
100.09
94.4841
89.346
84.6254
80.2781
76.2645
72.5514
69.1134
65.9533
63.3171
345.651
336.259
325.786
313.826
300.023
284.309
267.165
249.37
231.758
214.898
199.116
184.553
171.23
159.103
148.091
138.103
129.043
120.819
113.346
106.535
100.321
94.6416
89.4385
84.6608
80.2636
76.2071
72.4573
68.9878
65.8002
63.1377
345.554
335.939
325.242
313.133
299.347
283.87
267.116
249.754
232.493
215.865
200.201
185.665
172.302
160.091
148.97
138.861
129.676
121.329
113.738
106.819
100.506
94.7372
89.4546
84.6069
80.1488
76.0397
72.2449
68.737
65.5154
62.8178
345.44
335.556
324.575
312.245
298.404
283.094
266.676
249.714
232.805
216.434
200.92
186.445
173.074
160.804
149.594
139.378
130.079
121.618
113.917
106.894
100.486
94.6306
89.2707
84.3549
79.8376
75.6775
71.8393
68.2947
65.0398
62.3024
345.318
335.124
323.794
311.155
297.145
281.871
265.664
249.003
232.395
216.266
200.919
186.536
173.197
160.912
149.654
139.372
129.996
121.453
113.67
106.57
100.09
94.1696
88.7508
83.7833
79.2214
75.0237
71.1542
67.5836
64.3039
61.5264
345.191
334.643
322.881
309.812
295.482
280.071
263.906
247.408
231.01
215.084
199.902
185.637
172.374
160.128
148.879
138.586
129.187
120.614
112.796
105.664
99.1521
93.2018
87.7569
82.7673
78.1876
73.9763
70.0972
66.5202
63.2322
60.4178
345.061
334.096
321.779
308.112
293.266
277.511
261.195
244.704
228.411
212.635
197.61
183.488
170.346
158.197
147.024
136.789
127.436
118.898
111.109
104
97.51
91.5793
86.1532
81.1824
76.6219
72.4306
68.5725
65.0168
61.7449
58.9003
344.927
333.441
320.373
305.865
290.249
273.913
257.244
240.605
224.318
208.645
193.775
179.827
166.861
154.878
143.858
133.764
124.536
116.112
108.425
101.41
95.006
89.1549
83.8029
78.9014
74.4066
70.2777
66.4792
62.9799
59.7571
56.8916
344.787
332.597
318.454
302.741
286.024
268.838
251.615
234.696
218.344
202.755
188.063
174.345
161.628
149.899
139.128
129.27
120.264
112.046
104.55
97.7112
91.47
85.7696
80.5574
75.7859
71.4122
67.3966
63.7045
60.3042
57.173
54.2994
344.639
331.403
315.623
298.144
279.889
261.558
243.611
226.332
209.906
194.442
180.004
166.614
154.259
142.906
132.509
123.01
114.344
106.444
99.2445
92.681
86.6945
81.23
76.236
71.6666
67.4805
63.639
60.1093
56.8584
53.8747
51.0102
344.477
329.501
311.043
290.923
270.576
250.825
232.071
214.47
198.076
182.885
168.869
155.983
144.173
133.376
123.525
114.55
106.378
98.9404
92.1709
86.0062
80.3886
75.2648
70.5857
66.3071
62.3901
58.797
55.4994
52.4571
49.696
46.8664
344.28
325.941
302.755
278.66
255.626
234.347
214.943
197.304
181.272
166.694
153.432
141.371
130.406
120.442
111.392
103.174
95.7117
88.9344
82.7761
77.1758
72.0785
67.4339
63.1962
59.3241
55.7825
52.5338
49.5605
46.7985
44.3649
41.6157
343.888
317.624
285.49
255.723
229.823
207.55
188.261
171.401
156.512