/*--------------------------------*- C++ -*----------------------------------*\
  =========                 |
  \\      /  F ield         | OpenFOAM: The Open Source CFD Toolbox
   \\    /   O peration     | Website:  https://openfoam.org
    \\  /    A nd           | Version:  7
     \\/     M anipulation  |
\*---------------------------------------------------------------------------*/
FoamFile
{
    version     2.0;
    format      ascii;
    class       volScalarField;
    location    "800";
    object      nut;
}
// * * * * * * * * * * * * * * * * * * * * * * * * * * * * * * * * * * * * * //

dimensions      [0 2 -1 0 0 0 0];

internalField   nonuniform List<scalar> 
27370
(
624.392
316.353
132.689
37.8259
5.92788
10.6232
16.9746
25.4197
35.0542
44.9356
54.3839
62.9888
70.55
77.966
84.9448
88.6041
91.4601
93.6652
95.3026
96.4504
97.1814
97.5628
97.6658
97.6043
98.094
625.825
382.192
159.495
54.2034
4.60668
11.6155
20.5829
30.303
40.1694
49.7179
58.5951
66.569
73.5304
80.7872
87.742
90.8709
93.3161
95.1627
96.4906
97.3743
97.8819
98.0755
98.021
97.8274
98.2098
627.49
513.375
231.384
87.148
0.171345
8.57758
20.4849
32.1608
42.8641
52.4766
61.0193
68.5347
75.0549
80.6215
86.8011
92.8212
95.0314
96.6847
97.8518
98.6014
98.9959
99.0917
98.9391
98.5939
98.1559
98.3383
630.06
542.442
348.72
165.099
53.8857
0.146196
15.3457
29.2135
41.727
52.7616
62.1977
70.1171
76.7106
82.1792
86.6927
90.3844
94.8313
99.2486
100.252
100.865
101.146
101.144
100.903
100.463
99.8585
99.1326
98.3723
98.2884
633.194
556.23
450.18
321.598
172.091
70.5933
39.5133
52.7339
61.9975
70.7183
78.3601
84.8009
90.0349
94.1558
97.3207
99.6982
101.439
102.669
103.488
105.825
105.519
105.007
104.328
103.51
102.578
101.552
100.453
99.3086
98.1902
97.8062
635.823
568.04
480.795
375.272
272.782
182.447
135.415
134.781
128.658
125.556
123.72
122.415
121.261
120.084
118.822
117.465
116.029
114.544
113.074
111.459
109.864
108.267
106.666
105.065
103.47
101.883
100.307
98.7591
97.288
96.6015
637.123
574.685
499.61
415.596
333.32
266.485
220.443
190.187
172.862
161.043
152.485
145.856
140.365
135.627
131.42
127.61
124.114
120.88
117.884
115.048
112.382
109.87
107.489
105.225
103.064
100.996
99.0127
97.1183
95.3377
94.3748
636.424
574.079
504.451
432.501
364.037
305.547
260.315
226.951
203.405
186.07
172.721
161.858
153.036
145.548
139.068
133.371
128.299
123.744
119.624
115.855
112.393
109.198
106.235
103.476
100.896
98.4733
96.1909
94.0453
92.0292
90.8385
632.909
564.132
493.762
427.334
367.611
316.539
275.001
242.241
216.935
197.157
181.424
168.518
157.597
148.49
140.656
133.823
127.798
122.436
117.631
113.291
109.348
105.748
102.444
99.3995
96.581
93.962
91.5172
89.2419
87.0875
85.7345
625.107
541.625
465.368
400.891
347.266
302.894
266.522
236.977
213.128
193.769
177.908
164.78
153.405
143.796
135.581
128.405
122.085
116.475
111.462
106.954
102.878
99.173
95.7895
92.6867
89.8285
87.1874
84.7316
82.4648
80.2854
78.847
609.941
501.329
416.331
353.391
305.867
268.674
238.696
214.14
193.864
176.97
162.841
150.894
140.429
131.505
123.788
117.015
111.03
105.708
100.948
96.6666
92.7972
89.2841
86.0795
83.1461
80.4475
77.9621
75.6489
73.5354
71.4535
70.0136
580.256
435.323
344.256
286.661
247.477
218.698
196.103
177.654
162.243
149.1
137.948
128.136
119.653
112.251
105.744
99.987
94.8667
90.2897
86.1795
82.4719
79.113
76.0588
73.2686
70.7142
68.3597
66.1979
64.1708
62.3507
60.493
59.1394
518.326
334.87
250.654
205.972
178.387
159.259
144.461
132.42
122.283
113.322
105.569
98.7145
92.6302
87.2181
82.3887
78.0654
74.1829
70.6851
67.5235
64.6565
62.0469
59.6662
57.4821
55.4815
53.6246
51.9318
50.3129
48.9058
47.3999
46.2235
383.648
202.087
147.13
122.119
107.539
97.8438
90.0754
83.7965
78.3545
73.4546
69.0465
65.0571
61.4439
58.1595
55.1742
52.4615
49.9957
47.752
45.7065
43.8386
42.1267
40.5582
39.1076
37.7809
36.5296
35.4097
34.2947
33.372
32.3455
31.4408
151.873
75.0632
58.1092
50.4824
45.8328
42.7285
40.161
37.9306
35.9175
34.0551
32.3263
30.7189
29.2365
27.8428
26.5473
25.3513
24.2505
23.2386
22.3073
21.4502
20.6574
19.9279
19.2443
18.6228
18.0201
17.4951
16.9509
16.4943
16.0521
15.51
12.4958
9.27986
7.6279
6.69954
6.10286
5.68027
5.35039
5.07432
4.83202
4.61232
4.40952
4.22049
4.04352
3.87809
3.72286
3.5771
3.44028
3.31193
3.19159
3.07874
2.97302
2.87361
2.78087
2.69245
2.61203
2.53101
2.46409
2.38673
2.32638
2.25089
625.828
382.106
159.396
54.3069
4.33864
11.399
20.4546
30.2307
40.1274
49.6933
58.5793
66.5587
73.5235
80.7818
87.7364
90.8665
93.3127
95.16
96.4883
97.3724
97.8803
98.0742
98.0198
97.8264
98.2089
626.908
444.999
188.574
64.5583
5.02605
14.3757
24.7925
35.1551
45.0446
54.2381
62.5806
69.9724
76.3716
83.4703
90.399
93.0483
95.0851
96.5822
97.6122
98.2438
98.5388
98.5538
98.3491
98.0296
98.3091
628.536
536.662
261.742
104.009
1.26739
0.910125
12.8698
25.4029
37.1353
47.6735
56.9572
65.0589
72.0724
78.0837
83.1674
89.2069
95.2097
96.9848
98.2669
99.118
99.5993
99.7668
99.6707
99.3563
98.8746
98.3215
98.4091
631.059
546.757
400.503
189.82
78.7653
1.32751
1.81812
21.6973
35.3378
47.355
57.8226
66.7033
74.0951
80.1873
85.1825
89.2552
92.545
96.8802
101.263
101.899
102.199
102.212
101.981
101.546
100.941
100.196
99.3518
98.4903
98.3226
633.99
559.649
458.913
335.803
193.37
100.305
53.2174
64.6007
71.0155
78.167
84.641
90.1305
94.5722
98.0248
100.618
102.5
103.808
104.66
105.147
107.437
106.838
106.074
105.178
104.174
103.082
101.919
100.704
99.4605
98.2566
97.8008
636.379
570.37
486.28
385.904
287.758
196.793
148.462
146.953
138.02
133.142
129.949
127.597
125.599
123.729
121.888
120.044
118.195
116.354
114.574
112.694
110.871
109.078
107.307
105.561
103.839
102.143
100.475
98.8461
97.3051
96.559
637.472
576.118
502.827
421.497
341.873
276.394
229.993
198.623
179.727
166.819
157.141
149.735
143.605
138.339
133.694
129.517
125.709
122.208
118.983
115.95
113.114
110.454
107.946
105.571
103.313
101.162
99.1061
97.1489
95.3132
94.302
636.62
574.87
506.175
435.567
368.518
310.913
265.806
232.105
207.88
189.87
175.959
164.543
155.291
147.442
140.659
134.706
129.416
124.674
120.39
116.48
112.895
109.594
106.538
103.698
101.046
98.5618
96.2253
94.0325
91.9742
90.7454
633.002
564.505
494.57
428.772
369.73
319.177
277.856
245.067
219.532
199.453
183.407
170.249
159.055
149.722
141.698
134.7
128.532
123.046
118.132
113.696
109.67
105.996
102.628
99.526
96.6572
93.9939
91.51
89.2003
87.0148
85.6323
625.138
541.749
465.646
401.414
348.103
304.013
267.82
238.34
214.452
194.995
179.007
165.752
154.267
144.527
136.207
128.936
122.531
116.845
111.765
107.197
103.067
99.3141
95.8879
92.7468
89.8545
87.183
84.7
82.4091
80.2074
78.7468
609.94
501.328
416.35
353.474
306.062
269
239.137
214.661
194.419
177.522
163.362
151.378
140.87
131.892
124.126
117.306
111.276
105.913
101.114
96.7983
92.8968
89.3543
86.1231
83.1653
80.4447
77.9393
75.608
73.4782
71.3811
69.9248
580.244
435.277
344.183
286.583
247.424
218.693
196.157
177.765
162.396
149.28
138.137
128.328
119.842
112.425
105.901
100.125
94.9858
90.3896
86.2604
82.5345
79.1581
76.0874
73.2816
70.7128
68.3447
66.1705
64.1318
62.3013
60.4337
59.0686
518.314
334.825
250.577
205.872
178.28
159.163
144.388
132.381
122.267
113.333
105.605
98.762
92.6855
87.276
82.4455
78.1186
74.2305
70.7258
67.5565
64.6813
62.0634
59.6743
57.482
55.4734
53.6089
51.9089
50.283
48.8697
47.3579
46.174
383.642
202.063
147.085
122.056
107.462
97.7651
89.9993
83.7341
78.3062
73.4216
69.0285
65.0505
61.4457
58.1675
55.186
52.4752
50.0095
47.7646
45.717
43.8464
42.1311
40.559
39.1047
37.7743
36.5191
35.3956
34.2769
33.3509
32.3215
31.412
151.872
75.0568
58.0946
50.4603
45.803
42.695
40.1266
37.899
35.8902
34.033
32.3096
30.7072
29.2283
27.839
26.5466
25.3527
24.2532
23.2417
22.3103
21.4526
20.659
19.9284
19.2436
18.6208
18.0166
17.4904
16.9449
16.4866
16.0444
15.4989
12.4958
9.27971
7.62728
6.69829
6.10094
5.6778
5.34753
5.07131
4.82905
4.60955
4.40703
4.21834
4.0417
3.87654
3.72157
3.57603
3.43939
3.31117
3.19093
3.07814
2.97244
2.87303
2.78027
2.6918
2.61136
2.53021
2.46339
2.38555
2.32578
2.24964
627.495
513.083
231.059
86.9126
0.188448
8.49635
20.3005
31.9825
42.7287
52.3816
60.954
68.4893
75.023
80.5985
86.7834
92.8067
95.0199
96.6754
97.8443
98.5951
98.9907
99.0872
98.9353
98.5906
98.153
98.3357
628.535
536.66
261.471
103.711
1.10388
0.817794
12.8127
25.301
37.0335
47.592
56.8975
65.0168
72.0426
78.0625
83.1525
89.1952
95.2006
96.9775
98.261
99.1132
99.5953
99.7635
99.6679
99.3539
98.8724
98.3196
98.4074
630.474
545.386
343.295
156.052
46.4856
12.5088
26.4417
38.9955
50.1253
59.7503
67.9251
74.8004
80.5507
85.3302
89.2639
94.3519
99.5051
100.49
101.094
101.367
101.356
101.106
100.657
100.045
99.311
98.5444
98.4556
632.828
554.447
444.085
268.514
141.368
40.5093
18.8394
26.6571
39.8075
51.5571
61.7931
70.5679
77.8869
83.8528
88.6403
92.4412
95.4277
97.7406
101.263
104.869
104.843
104.572
104.094
103.444
102.652
101.742
100.74
99.6753
98.6264
98.3023
635.367
565.494
472.762
356.249
233.944
143.1
101.219
90.9125
91.5531
94.9606
98.6448
101.919
104.54
106.472
107.777
108.556
108.91
108.934
108.701
110.32
109.187
107.96
106.665
105.318
103.932
102.519
101.088
99.6614
98.2989
97.7091
637.329
574.342
495.417
403.235
312.792
239.471
194.037
169.377
155.935
147.086
141.469
137.165
133.582
130.409
127.487
124.734
122.112
119.612
117.259
114.89
112.649
110.494
108.411
106.396
104.443
102.547
100.706
98.9291
97.2587
96.4013
638.058
578.54
508.249
431.386
356.259
292.271
245.415
213.508
192.252
177.233
165.683
156.833
149.513
143.272
137.816
132.957
128.572
124.58
120.931
117.535
114.387
111.456
108.712
106.132
103.698
101.392
99.2038
97.1312
95.1933
94.0922
636.937
576.171
509.046
440.712
376.087
319.912
275.12
241.134
215.867
196.697
181.715
169.445
159.353
150.845
143.509
137.086
131.396
126.308
121.725
117.556
113.746
110.249
107.023
104.034
101.252
98.6544
96.2187
93.9392
91.8031
90.5033
633.139
565.072
495.849
431.114
373.256
323.614
282.722
249.966
224.086
203.504
186.907
173.314
161.652
151.89
143.528
136.233
129.804
124.092
118.979
114.37
110.192
106.384
102.898
99.6924
96.732
93.988
91.4329
89.0606
86.8178
85.3805
625.17
541.888
466.011
402.181
349.409
305.821
269.966
240.634
216.707
197.096
180.897
167.425
155.752
145.783
137.275
129.835
123.278
117.456
112.255
107.578
103.351
99.5123
96.0087
92.7987
89.8447
87.1182
84.5861
82.2516
80.0094
78.5073
609.92
501.263
416.287
353.503
306.275
269.442
239.791
215.469
195.301
178.414
164.211
152.168
141.592
132.525
124.674
117.772
111.665
106.229
101.363
96.9846
93.0261
89.4315
86.1527
83.1516
80.3914
77.8502
75.4864
73.3275
71.203
69.7161
580.209
435.155
343.99
286.364
247.237
218.588
196.156
177.871
162.58
149.524
138.401
128.604
120.119
112.682
106.13
100.325
95.1535
90.5246
86.3631
82.6057
79.199
76.0994
73.2664
70.672
68.2801
66.0839
64.0246
62.1755
60.2907
58.9036
518.287
334.726
250.409
205.653
178.037
158.933
144.195
132.25
122.177
113.295
105.617
98.7982
92.7395
87.338
82.5086
78.1776
74.2817
70.7664
67.5847
64.6961
62.0641
59.6608
57.4543
55.432
53.5541
51.8416
50.2035
48.779
47.2574
46.0586
383.631
202.014
146.993
121.925
107.302
97.5977
89.8332
83.5907
78.1874
73.3311
68.9661
65.0101
61.4221
58.1567
55.1838
52.4777
50.0136
47.7678
45.7173
43.8424
42.1218
40.5439
39.0832
37.7465
36.4847
35.3549
34.2299
33.2978
32.2639
31.3455
151.871
75.0449
58.0668
50.4176
45.7444
42.6278
40.0563
37.8321
35.8304
33.9823
32.2687
30.6754
29.2031
27.822
26.5358
25.3462
24.2492
23.239
22.3077
21.4495
20.6546
19.9224
19.2355
18.6106
18.0041
17.4757
16.9278
16.4669
16.0236
15.4743
12.4958
9.27947
7.62615
6.696
6.09732
5.67303
5.3419
5.06525
4.82294
4.60369
4.40163
4.21349
4.03743
3.87276
3.71826
3.57314
3.43684
3.3089
3.18886
3.0762
2.97058
2.87119
2.77842
2.68989
2.60939
2.52811
2.46122
2.38321
2.32332
2.24702
630.054
542.418
347.886
164.421
53.3612
0.132407
15.2005
29.0326
41.5285
52.5722
62.0379
69.9923
76.6167
82.1094
86.6406
90.345
94.801
99.2244
100.232
100.849
101.133
101.132
100.893
100.455
99.8516
99.1266
98.367
98.2836
631.053
546.734
399.818
189.129
78.5312
1.55919
1.75095
21.4902
35.163
47.1922
57.6736
66.5778
73.9961
80.1119
85.1258
89.2125
92.5124
96.8554
101.244
101.883
102.186
102.201
101.972
101.539
100.934
100.191
99.3469
98.486
98.3187
632.824
554.431
444.04
268.056
141.113
39.9477
18.8412
26.5433
39.6704
51.4538
61.7074
70.4942
77.8252
83.8034
88.6018
92.4116
95.4049
97.7229
101.249
104.858
104.835
104.565
104.088
103.439
102.647
101.739
100.736
99.6725
98.6239
98.3001
634.932
563.448
466.994
344.124
213.678
122.256
70.6861
65.1683
70.6863
77.6128
84.1244
89.7502
94.3552
97.9668
100.697
102.688
104.079
104.989
107.137
109.355
108.474
107.461
106.345
105.148
103.89
102.583
101.243
99.8907
98.5941
98.0616
636.979
572.352
489.252
389.546
291.389
197.505
149.477
128.976
121.524
119.269
118.704
118.617
118.515
118.203
117.633
116.827
115.829
114.691
113.453
113.88
112.05
110.219
108.403
106.609
104.84
103.098
101.387
99.7189
98.1471
97.3786
638.411
578.908
506.019
423.282
341.448
273.483
226.174
196.63
178.193
165.639
156.531
149.625
143.925
139.012
134.645
130.683
127.04
123.67
120.563
117.557
114.768
112.142
109.653
107.287
105.031
102.874
100.808
98.8374
96.9966
95.9906
638.692
581.211
514.368
442.662
372.809
312.202
265.438
231.78
207.858
190.288
176.746
165.867
157.029
149.517
143
137.248
132.108
127.474
123.273
119.403
115.848
112.564
109.514
106.669
104.005
101.5
99.1382
96.9158
94.8442
93.6229
637.241
577.481
512.094
446.381
384.64
330.576
286.45
252.039
225.626
205.117
188.857
175.568
164.399
155.05
147.003
139.976
133.768
128.234
123.264
118.76
114.661
110.911
107.465
104.285
101.336
98.5915
96.0281
93.6373
91.4
90.0055
633.227
565.499
496.991
433.448
377.02
328.574
288.328
255.673
229.456
208.326
191.112
176.935
164.784
154.47
145.68
138.009
131.252
125.252
119.888
115.059
110.687
106.709
103.073
99.7355
96.6587
93.8121
91.1665
88.7147
86.3982
84.8881
625.138
541.829
466.1
402.677
350.519
307.576
272.193
243.099
219.184
199.438
183.019
169.294
157.414
147.18
138.443
130.797
124.053
118.065
112.713
107.902
103.555
99.6082
96.0085
92.7123
89.6813
86.8861
84.2924
81.9037
79.61
78.0531
609.841
501.008
415.94
353.202
306.164
269.608
240.236
216.135
196.095
179.257
165.03
152.935
142.295
133.138
125.191
118.195
111.998
106.477
101.532
97.0797
93.0528
89.3954
86.0588
83.005
80.1967
77.6118
75.208
73.0137
70.8551
69.3278
580.131
434.891
343.58
285.876
246.756
218.193
195.89
177.749
162.571
149.61
138.528
128.765
120.297
112.847
106.274
100.44
95.2361
90.5726
86.3755
82.5828
79.1415
76.0086
73.1438
70.5195
68.0993
65.8769
63.7929
61.9217
60.0158
58.5998
518.234
334.549
250.114
205.266
177.598
158.493
143.793
131.925
121.905
113.099
105.489
98.7113
92.685
87.3027
82.4828
78.1536
74.2535
70.73
67.5369
64.6347
61.9879
59.5692
57.3469
55.3091
53.4158
51.6888
50.0363
48.5987
47.0657
45.8472
383.611
201.935
146.848
121.718
107.044
97.3182
89.5471
83.3283
77.9547
73.1358
68.809
64.8846
61.3222
58.0774
55.1194
52.4231
49.9643
47.7202
45.6686
43.7904
42.065
40.4812
39.0138
37.6701
36.4009
35.2641
34.1316
33.1923
32.1538
31.223
151.869
75.0275
58.0258
50.3537
45.6552
42.5231
39.9438
37.7214
35.7269
33.8899
32.1888
30.6076
29.1448
27.7752
26.4981
25.3152
24.2227
23.2151
22.285
21.4268
20.631
19.8973
19.2084
18.5813
17.9721
17.4412
16.8907
16.4266
15.9829
15.4267
12.4958
9.27912
7.62455
6.69267
6.09198
5.66586
5.33328
5.05575
4.8131
4.59396
4.39234
4.20484
4.02949
3.86546
3.71159
3.56705
3.43125
3.30372
3.184
3.07158
2.96612
2.86682
2.77411
2.68554
2.60504
2.52357
2.45685
2.37807
2.31963
2.24076
633.182
556.175
450.011
321.183
171.219
69.9146
38.6633
52.2054
61.6234
70.4225
78.1176
84.5987
89.8684
94.0217
97.2146
99.615
101.373
102.618
103.447
105.793
105.492
104.985
104.309
103.494
102.564
101.54
100.442
99.2997
98.1822
97.799
633.98
559.603
458.783
335.486
192.818
88.3428
52.6532
63.7942
70.6456
77.901
84.431
89.9583
94.4309
97.9107
100.527
102.429
103.752
104.615
105.112
107.409
106.815
106.055
105.161
104.16
103.07
101.909
100.695
99.4527
98.2496
97.7945
635.36
565.463
472.68
356.05
233.554
142.492
100.859
90.6443
91.3246
94.7803
98.5024
101.803
104.445
106.395
107.716
108.507
108.871
108.903
108.675
110.301
109.171
107.946
106.653
105.308
103.924
102.511
101.082
99.6556
98.2937
97.7044
636.976
572.338
489.218
389.472
291.26
197.311
149.327
128.865
121.427
119.188
118.638
118.564
118.472
118.168
117.605
116.804
115.81
114.676
113.44
113.871
112.041
110.212
108.397
106.604
104.835
103.094
101.383
99.7159
98.1444
97.3761
638.438
578.688
504.58
419.422
335.127
253.58
201.359
172.215
156.693
147.747
142.035
137.84
134.425
131.406
128.599
125.924
123.35
120.872
118.49
117.375
114.777
112.282
109.896
107.613
105.425
103.325
101.307
99.3761
97.5725
96.6017
639.309
582.844
515.48
441.345
368.273
305.339
257.746
224.603
201.717
185.361
172.823
162.986
154.938
148.086
142.111
136.805
132.031
127.7
123.764
120.062
116.677
113.536
110.604
107.856
105.271
102.83
100.521
98.3404
96.3119
95.138
639.129
583.224
519.397
452.443
387.779
330.802
284.861
249.899
223.683
203.717
188.074
175.312
164.762
155.88
148.214
141.496
135.539
130.209
125.409
121.03
117.034
113.37
109.99
106.859
103.947
101.229
98.6818
96.2991
94.0815
92.725
637.35
578.139
514.118
450.759
391.83
340.053
296.947
262.38
235.062
213.365
195.883
181.571
169.379
159.114
150.328
142.663
135.906
129.899
124.52
119.663
115.257
111.241
107.562
104.179
101.053
98.1552
95.4575
92.9497
90.6035
89.1031
633.133
565.319
497.18
434.622
379.575
332.427
292.998
260.618
234.229
212.676
194.928
180.201
167.603
156.751
147.529
139.477
132.387
126.095
120.474
115.418
110.847
106.695
102.905
99.4315
96.2352
93.2834
90.545
88.012
85.6179
84.0269
624.948
541.25
465.388
402.201
350.589
308.313
273.501
244.76
220.975
201.192
184.632
170.705
158.659
148.195
139.249
131.409
124.489
118.339
112.843
107.901
103.436
99.3835
95.6888
92.3077
89.2007
86.3376
83.6831
81.241
78.8948
77.2774
609.638
500.358
414.991
352.17
305.256
268.969
239.912
216.092
196.249
179.53
165.342
153.239
142.576
133.368
125.351
118.281
112.01
106.416
101.401
96.8831
92.7944
89.0793
85.6894
82.5864
79.733
77.1071
74.6654
72.438
70.2461
68.6746
579.969
434.374
342.786
284.911
245.739
217.235
195.065
177.089
162.058
149.236
138.227
128.538
120.116
112.685
106.114
100.271
95.05
90.3649
86.1432
82.3239
78.8554
75.6953
72.8038
70.1536
67.7087
65.4632
63.3568
61.4661
59.541
58.0935
518.14
334.248
249.627
204.627
176.859
157.722
143.046
131.256
121.297
112.592
105.059
98.3473
92.374
87.0303
82.2366
77.9235
74.0316
70.51
67.3141
64.4057
61.7501
59.3209
57.087
55.0372
53.1314
51.3924
49.7276
48.2787
46.7365
45.4961
383.58
201.819
146.634
121.412
106.657
96.8866
89.093
82.8897
77.5442
72.7686
68.4856
64.6021
61.0749
57.8601
54.9261
52.2476
49.8012
47.5648
45.5173
43.6402
41.9136
40.327
38.8554
37.5069
36.232
35.0897
33.9512
33.0052
31.9652
31.0182
151.867
75.0044
57.9706
50.2661
45.531
42.3736
39.7787
37.5528
35.5628
33.7364
32.0485
30.4815
29.0305
27.6752
26.4103
25.2368
24.1514
23.1487
22.2218
21.3652
20.5698
19.8359
19.1458
18.5174
17.9062
17.3733
16.8214
16.352
15.9156
15.3386
12.4958
9.27869
7.62251
6.68833
6.08486
5.65609
5.32123
5.04213
4.79858
4.57918
4.37776
4.19078
4.01614
3.85279
3.69965
3.55581
3.42067
3.2937
3.17446
3.06242
2.95727
2.85818
2.76563
2.67714
2.59679
2.51492
2.44978
2.36443
2.33227
2.21111
635.809
567.981
480.643
374.936
272.216
181.716
134.669
134.292
128.295
125.268
123.49
122.228
121.108
119.959
118.719
117.381
115.961
114.488
113.028
111.42
109.832
108.24
106.643
105.045
103.452
101.867
100.294
98.7473
97.2774
96.5919
636.367
570.32
486.155
385.636
287.347
196.494
147.833
146.599
137.705
132.894
129.75
127.436
125.467
123.62
121.799
119.971
118.134
116.304
114.533
112.659
110.843
109.053
107.286
105.543
103.823
102.13
100.463
98.8353
97.2955
96.5503
637.321
574.305
495.331
403.06
312.51
239.137
193.739
169.129
155.717
146.907
141.324
137.046
133.484
130.328
127.42
124.678
122.066
119.574
117.227
114.864
112.626
110.474
108.395
106.382
104.43
102.536
100.696
98.9204
97.2508
96.3941
638.406
578.888
505.971
423.19
341.303
273.304
226.007
196.487
178.07
165.533
156.443
149.553
143.865
138.962
134.603
130.647
127.011
123.645
120.542
117.539
114.753
112.129
109.642
107.277
105.022
102.866
100.801
98.8313
96.9911
95.9856
639.307
582.836
515.462
441.311
368.222
305.273
257.68
224.545
201.666
185.318
172.785
162.955
154.912
148.064
142.092
136.789
132.018
127.689
123.754
120.053
116.67
113.53
110.599
107.851
105.266
102.827
100.518
98.3373
96.3091
95.1355
639.667
584.845
521.369
453.838
388.067
330.075
283.557
248.495
222.441
202.758
187.405
174.893
164.613
155.935
148.436
141.855
136.01
130.769
126.044
121.714
117.763
114.136
110.787
107.68
104.787
102.082
99.5452
97.1689
94.9611
93.6197
639.084
583.55
521.522
458.127
397.811
344.292
299.794
264.415
236.73
214.941
197.492
183.256
171.153
161.018
152.306
144.702
137.993
132.021
126.668
121.823
117.423
113.408
109.726
106.334
103.197
100.283
97.5678
95.0398
92.6857
91.1953
637.031
577.337
513.748
452
395.397
345.796
303.995
269.742
242.02
219.554
201.179
185.999
173.085
161.994
152.565
144.343
137.106
130.682
124.941
119.774
115.098
110.847
106.964
103.402
100.121
97.0882
94.2731
91.6638
89.2191
87.6149
632.669
563.908
495.422
433.333
379.38
333.483
295.033
263.179
236.914
215.214
197.17
182.07
169.176
157.928
148.36
140.01
132.652
126.122
120.29
115.05
110.316
106.019
102.102
98.5165
95.2213
92.1828
89.368
86.7693
84.3083
82.639
624.454
539.685
463.166
399.873
348.626
306.968
272.793
244.555
221.08
201.443
184.907
170.917
158.81
148.231
139.157
131.193
124.154
117.894
112.295
107.26
102.709
98.5788
94.8139
91.3694
88.2054
85.2916
82.5913
80.1101
77.7219
76.0469
609.206
498.99
412.974
349.847
302.938
266.877
238.155
214.682
195.132
178.64
164.596
152.568
141.969
132.794
124.769
117.681
111.383
105.757
100.708
96.1554
92.0319
88.283
84.8606
81.727
78.8448
76.1925
73.7258
71.4775
69.2619
67.6489
579.659
433.415
341.346
283.159
243.845
215.352
193.303
175.514
160.667
148.043
137.155
127.601
119.274
111.914
105.391
99.5782
94.3758
89.6997
85.4801
81.6579
78.1828
75.0137
72.1115
69.4499
66.9929
64.7357
62.6171
60.7163
58.7801
57.3035
517.973
333.741
248.834
203.598
175.663
156.447
141.768
130.05
120.156
111.574
104.138
97.5217
91.6294
86.3529
81.6122
77.3397
73.4781
69.9781
66.7969
63.8977
61.2471
58.8198
56.5852
54.533
52.6233
50.8802
49.2099
47.756
46.2109
44.9515
383.53
201.645
146.322
120.964
106.088
96.2396
88.3995
82.1957
76.8718
72.1411
67.9073
64.0743
60.5934
57.4208
54.523
51.8741
49.4511
47.2327
45.1983
43.3307
41.6103
40.0276
38.5576
37.2098
35.9339
34.7904
33.65
32.7005
31.6617
30.7065
151.863
74.9741
57.8977
50.1487
45.3619
42.1657
39.5439
37.3059
35.3146
33.4961
31.8208
30.2688
28.8318
27.4935
26.2439
25.0835
24.0086
23.0141
22.0933
21.2412
20.4489
19.717
19.0279
18.4001
17.7887
17.2554
16.7029
16.2331
15.7915
15.2277
12.4958
9.27819
7.62
6.68286
6.07566
5.64315
5.30494
5.02325
4.77796
4.55763
4.35595
4.1692
3.9951
3.8324
3.68004
3.53702
3.40267
3.27646
3.15789
3.04644
2.9418
2.84314
2.75095
2.66273
2.58256
2.50124
2.4345
2.3564
2.29632
2.21956
637.111
574.635
499.493
415.366
332.953
266.051
220.008
189.805
172.557
160.787
152.281
145.688
140.226
135.511
131.323
127.528
124.046
120.822
117.836
115.007
112.347
109.839
107.463
105.202
103.044
100.978
98.9968
97.104
95.3248
94.363
637.461
576.075
502.727
421.305
341.579
276.05
229.645
198.315
179.464
166.596
156.96
149.586
143.48
138.235
133.607
129.443
125.647
122.156
118.939
115.912
113.081
110.426
107.922
105.55
103.295
101.145
99.0913
97.1357
95.3012
94.291
638.05
578.507
508.176
431.25
356.05
292.019
245.164
213.283
192.055
177.066
165.541
156.716
149.414
143.189
137.746
132.898
128.522
124.537
120.895
117.503
114.36
111.432
108.692
106.114
103.682
101.378
99.1912
97.1199
95.1831
94.0827
638.686
581.19
514.321
442.579
372.684
312.047
265.281
231.636
207.73
190.178
176.65
165.787
156.96
149.459
142.95
137.206
132.072
127.443
123.246
119.38
115.828
112.546
109.499
106.656
103.992
101.489
99.1285
96.9071
94.8363
93.6156
639.127
583.212
519.373
452.401
387.717
330.725
284.78
249.823
223.614
203.656
188.02
175.265
164.722
155.846
148.185
141.471
135.517
130.19
125.392
121.015
117.022
113.358
109.98
106.85
103.939
101.221
98.6754
96.2933
94.0762
92.7201
639.083
583.545
521.513
458.112
397.789
344.265
299.765
264.387
236.704
214.917
197.471
183.237
171.137
161.004
152.293
144.691
137.983
132.012
126.66
121.816
117.417
113.403
109.722
106.33
103.193
100.28
97.5647
95.037
92.6831
91.1929
638.199
581.007
518.895
457.44
400.335
349.913
307.325
272.474
244.345
221.617
203.072
187.775
174.779
163.635
154.153
145.89
138.617
132.161
126.39
121.192
116.487
112.209
108.299
104.711
101.405
98.3478
95.5093
92.8767
90.417
88.8098
635.97
574.053
509.433
448.226
393.296
345.667
305.423
272.03
244.552
221.929
203.183
187.535
174.252
162.658
152.795
144.215
136.659
129.956
123.971
118.592
113.732
109.321
105.3
101.618
98.233
95.1107
92.2187
89.545
87.0302
85.3377
631.564
560.4
490.446
428.109
374.863
330.131
292.824
261.833
236.097
214.654
196.679
181.524
168.571
157.188
147.451
138.963
131.473
124.821
118.877
113.536
108.712
104.336
100.349
96.7014
93.3524
90.2673
87.4118
84.78
82.2778
80.5441
623.431
536.435
458.442
394.576
343.477
302.405
268.966
241.421
218.501
199.271
183.005
169.176
157.176
146.671
137.613
129.649
122.599
116.321
110.699
105.639
101.064
96.9099
93.1223
89.6568
86.4736
83.5429
80.827
78.3349
75.9272
74.2065
608.37
496.386
409.18
345.45
298.412
262.554
234.218
211.197
192.073
175.957
162.212
150.387
139.985
130.965
123.037
116.02
109.776
104.189
99.1673
94.6334
90.5228
86.7824
83.3653
80.2347
77.3539
74.7025
72.235
69.9888
67.7684
66.1236
579.082
431.686
338.826
280.144
240.589
212.067
190.143
172.577
157.976
145.626
134.931
125.599
117.444
110.23
103.822
98.1013
92.9719
88.3536
84.1795
80.3931
76.9459
73.7987
70.9135
68.2652
65.8184
63.5699
61.4568
59.5631
57.631
56.1324
517.673
332.876
247.532
201.949
173.767
154.421
139.713
128.065
118.244
109.813
102.506
96.024
90.2525
85.0829
80.4333
76.2369
72.4381
68.9896
65.8502
62.9848
60.3613
57.9557
55.7383
53.7001
51.8011
50.0673
48.4035
46.9555
45.4193
44.1444
383.445
201.372
145.849
120.297
105.247
95.2789
87.3634
81.1395
75.8294
71.1454
66.9682
63.1978
59.778
56.6637
53.8185
51.2155
48.8315
46.6456
44.6381
42.7924
41.0896
39.5213
38.0626
36.7242
35.4553
34.3179
33.1823
32.2343
31.2067
30.2393
151.858
74.9328
57.7982
49.9872
45.1284
41.8756
39.2123
36.9508
34.9506
33.136
31.4718
29.9358
28.5153
27.1971
25.9668
24.8238
23.7639
22.7821
21.8718
21.0283
20.2429
19.5168
18.8319
18.208
17.5992
17.068
16.5184
16.0467
15.6133
15.0418
12.4958
9.27759
7.61687
6.67583
6.0636
5.6259
5.28287
4.99727
4.74909
4.52694
4.32434
4.13737
3.96358
3.80145
3.64989
3.50781
3.37446
3.24923
3.13161
3.02103
2.91719
2.81923
2.72771
2.63999
2.56043
2.47934
2.41335
2.33493
2.27591
2.19867
636.415
574.041
504.369
432.353
363.81
305.27
260.026
226.681
203.173
185.872
172.55
161.717
152.915
145.445
138.981
133.296
128.235
123.689
119.576
115.813
112.357
109.166
106.207
103.451
100.874
98.4534
96.1731
94.0292
92.0145
90.825
636.611
574.837
506.104
435.439
368.327
310.68
265.561
231.875
207.675
189.693
175.806
164.415
155.182
147.348
140.579
134.637
129.356
124.622
120.346
116.441
112.862
109.564
106.512
103.674
101.025
98.5432
96.2086
94.0173
91.9604
90.7326
636.93
576.145
508.991
440.616
375.944
319.736
274.934
240.957
215.707
196.556
181.593
169.339
159.263
150.767
143.442
137.028
131.346
126.265
121.687
117.523
113.717
110.223
107
104.013
101.234
98.6381
96.204
93.9259
91.791
90.492
637.236
577.463
512.056
446.316
384.545
330.458
286.325
251.918
225.514
205.017
188.769
175.49
164.331
154.991
146.952
139.931
133.729
128.2
123.234
118.734
114.637
110.891
107.447
104.268
101.321
98.5783
96.0162
93.6265
91.39
89.9963
637.347
578.128
514.095
450.721
391.776
339.985
296.873
262.306
234.993
213.302
195.826
181.52
169.334
159.075
150.293
142.632
135.88
129.875
124.499
119.644
115.24
111.226
107.549
104.167
101.043
98.1455
95.4487
92.9417
90.5961
89.0962
637.03
577.332
513.737
451.982
395.371
345.763
303.958
269.705
241.984
219.521
201.148
185.971
173.059
161.971
152.545
144.326
137.09
130.668
124.929
119.762
115.088
110.838
106.956
103.395
100.115
97.0821
94.2675
91.6587
89.2144
87.6105
635.97
574.051
509.429
448.22
393.287
345.655
305.41
272.017
244.539
221.916
203.171
187.524
174.242
162.649
152.787
144.207
136.652
129.95
123.965
118.587
113.728
109.317
105.296
101.614
98.2299
95.108
92.2162
89.5427
87.028
85.3356
633.691
566.845
499.229
437.4
383.593
337.864
299.512
267.592
241.093
219.043
200.587
185.044
171.813
160.169
150.207
141.549
133.911
127.13
121.073
115.632
110.719
106.262
102.201
98.4871
95.077
91.9354
89.0283
86.347
83.8075
82.0548
629.378
553.487
480.521
417.155
364.344
320.827
284.949
255.254
230.548
209.867
192.431
177.646
164.942
153.754
144.139
135.732
128.299
121.689
115.775
110.458
105.654
101.294
97.3212
93.6874
90.3513
87.2797
84.4367
81.8216
79.3184
77.5447
621.488
530.372
449.758
384.818
333.757
293.368
260.889
234.333
212.302
193.812
178.137
164.764
153.099
142.913
134.075
126.284
119.372
113.205
107.675
102.69
98.1787
94.0787
90.3377
86.9131
83.766
80.8685
78.1814
75.7203
73.3276
71.582
606.812
491.659
402.492
337.852
290.634
255.057
227.254
204.867
186.374
170.843
157.605
146.156
136.14
127.421
119.735
112.917
106.835
101.384
96.476
92.0372
88.0073
84.3358
80.9779
77.8989
75.063
72.4521
70.0191
67.8084
65.6119
63.9521
578.014
428.595
334.497
275.13
235.279
206.749
185.013
167.76
153.508
141.545
131.148
122.158
114.281
107.31
101.108
95.5619
90.5798
86.086
82.0172
78.3201
74.949
71.867
69.0377
66.4382
64.0333
61.8228
59.7413
57.8792
55.9742
54.4657
517.121
331.359
245.356
199.297
170.795
151.288
136.55
124.993
115.275
107.04
99.9128
93.6207
88.025
83.0153
78.5073
74.4346
70.7426
67.3858
64.3249
61.5267
58.9606
56.6044
54.4292
52.4281
50.5605
48.8553
47.2154
45.7886
44.2801
42.9941
383.292
200.917
145.097
119.272
103.984
93.853
85.8347
79.5772
74.2787
69.6491
65.5424