/*--------------------------------*- C++ -*----------------------------------*\
  =========                 |
  \\      /  F ield         | OpenFOAM: The Open Source CFD Toolbox
   \\    /   O peration     | Website:  https://openfoam.org
    \\  /    A nd           | Version:  7
     \\/     M anipulation  |
\*---------------------------------------------------------------------------*/
FoamFile
{
    version     2.0;
    format      ascii;
    class       volScalarField;
    location    "800";
    object      omega;
}
// * * * * * * * * * * * * * * * * * * * * * * * * * * * * * * * * * * * * * //

dimensions      [0 0 -1 0 0 0 0];

internalField   nonuniform List<scalar> 
27370
(
0.558857
0.694901
1.2206
8.18652
3.00727
3.27457
2.98443
2.56996
2.19378
1.88915
1.65098
1.46565
1.32017
1.1899
1.07543
1.00713
0.949539
0.899881
0.856658
0.818688
0.785026
0.754928
0.727793
0.703218
0.679275
0.557162
0.674242
1.07225
5.24481
4.65911
4.04018
3.16639
2.56334
2.14318
1.83859
1.61053
1.43547
1.29816
1.17178
1.06004
0.995565
0.940498
0.892897
0.851318
0.814645
0.782
0.752699
0.726191
0.702109
0.678571
0.554926
0.650553
0.894058
2.54595
14.6047
6.72996
4.1045
2.98589
2.36962
1.98055
1.71254
1.51626
1.36608
1.24739
1.13437
1.03247
0.974377
0.92425
0.880499
0.841919
0.807584
0.776766
0.748897
0.723517
0.70033
0.677522
0.551755
0.632741
0.824759
1.44512
5.54211
96.75
7.73794
4.40644
3.12184
2.44321
2.02714
1.74756
1.54706
1.39592
1.27747
1.18176
1.08696
0.998572
0.948511
0.904559
0.865581
0.830713
0.799279
0.770742
0.744674
0.720723
0.698679
0.676788
0.54812
0.613281
0.742887
1.02061
1.81199
3.96425
5.88828
4.01122
3.1177
2.52361
2.12275
1.84013
1.63264
1.47485
1.35102
1.25112
1.16854
1.09885
1.03891
0.965411
0.923294
0.885506
0.851342
0.820258
0.791816
0.765657
0.741484
0.719042
0.698216
0.677265
0.545049
0.597405
0.688913
0.85446
1.12197
1.59009
1.9577
1.77345
1.70121
1.60141
1.49966
1.40485
1.31977
1.24447
1.17799
1.1191
1.06663
1.01953
0.976747
0.9382
0.90295
0.870576
0.840711
0.813048
0.787333
0.763345
0.740911
0.719863
0.700182
0.680041
0.543258
0.587936
0.657785
0.763993
0.910868
1.07448
1.21098
1.29736
1.31651
1.30344
1.27165
1.23086
1.18719
1.14343
1.10099
1.06051
1.02225
0.986252
0.952362
0.920599
0.890768
0.862706
0.836279
0.811371
0.787868
0.765662
0.744657
0.724743
0.706012
0.68641
0.543288
0.586357
0.647002
0.727292
0.825957
0.931421
1.02533
1.09504
1.13304
1.1466
1.14324
1.13003
1.10867
1.08329
1.0557
1.02715
0.998438
0.97003
0.942239
0.915306
0.889339
0.864385
0.840456
0.817544
0.79563
0.774679
0.754664
0.735503
0.717438
0.697971
0.545824
0.594614
0.656525
0.728768
0.808183
0.888465
0.960957
1.01879
1.05798
1.07999
1.08774
1.08533
1.07638
1.06081
1.04154
1.01991
0.996883
0.973134
0.949133
0.925226
0.901656
0.878587
0.856127
0.834344
0.813284
0.792957
0.773395
0.754497
0.736748
0.716867
0.552209
0.61705
0.691193
0.767446
0.842059
0.911763
0.972803
1.02198
1.05747
1.07977
1.09039
1.09117
1.08675
1.07587
1.06021
1.04172
1.0213
0.999634
0.977259
0.954574
0.931881
0.909401
0.887295
0.865673
0.844624
0.824174
0.804422
0.78516
0.767325
0.746282
0.565536
0.663661
0.764702
0.856172
0.934698
1.00037
1.05381
1.09511
1.12439
1.14262
1.15064
1.15026
1.14516
1.13384
1.11807
1.09943
1.07874
1.05667
1.03375
1.0104
0.986932
0.963584
0.940544
0.917928
0.89587
0.874353
0.853617
0.833134
0.814762
0.791487
0.594052
0.759328
0.910372
1.02876
1.11604
1.17884
1.22382
1.25462
1.2735
1.28297
1.28297
1.27777
1.26627
1.25004
1.23029
1.20798
1.18387
1.15857
1.13258
1.10628
1.07998
1.0539
1.02824
1.00309
0.978646
0.954727
0.931951
0.908925
0.889512
0.862328
0.664512
0.975766
1.21581
1.37011
1.46196
1.51283
1.54068
1.55221
1.55181
1.54555
1.53129
1.51196
1.48857
1.46192
1.43283
1.40202
1.37009
1.33754
1.30478
1.27215
1.23991
1.20824
1.17736
1.1472
1.11823
1.08967
1.06327
1.03532
1.01426
0.980183
0.896594
1.57455
1.95135
2.11885
2.17939
2.18144
2.16668
2.13526
2.09717
2.05659
2.0132
1.96781
1.92084
1.87309
1.82494
1.77672
1.72876
1.68135
1.63479
1.58927
1.54506
1.50211
1.46087
1.42068
1.38298
1.34503
1.31202
1.27402
1.25016
1.20285
2.25129
3.88455
4.19845
4.15147
4.0172
3.84974
3.69792
3.55904
3.43109
3.31213
3.19963
3.09231
2.98852
2.89038
2.79642
2.70592
2.61867
2.53466
2.45399
2.37661
2.3028
2.23199
2.1653
2.10026
2.04139
1.98001
1.93118
1.86887
1.8363
1.75829
25.3733
18.8431
15.4887
13.6037
12.3921
11.534
10.8642
10.3036
9.81159
9.36549
8.9537
8.56987
8.21052
7.8746
7.55941
7.26344
6.98562
6.725
6.48065
6.2515
6.03682
5.83497
5.64667
5.46709
5.30395
5.1388
5.00544
4.8384
4.75449
4.5392
0.55716
0.674234
1.07216
5.2636
4.79237
4.07879
3.17629
2.56646
2.14436
1.83908
1.61077
1.43559
1.29823
1.17182
1.06008
0.995592
0.940517
0.892911
0.851329
0.814653
0.782006
0.752704
0.726195
0.702112
0.678573
0.555814
0.660378
0.976941
3.85439
6.22601
4.25895
3.1545
2.50378
2.08244
1.78856
1.57238
1.40726
1.27754
1.15486
1.04548
0.984426
0.931934
0.886332
0.846313
0.810857
0.779164
0.75061
0.72469
0.701074
0.677919
0.553676
0.642225
0.851931
2.20079
82.5499
18.8311
6.13577
3.84924
2.8459
2.28039
1.91892
1.66827
1.48392
1.34227
1.22981
1.11982
1.01973
0.964608
0.916742
0.874735
0.837511
0.804237
0.774253
0.747044
0.722188
0.699418
0.676956
0.550628
0.626662
0.79606
1.28982
3.8908
69.6544
33.0684
6.40155
3.97974
2.92131
2.33048
1.95648
1.69992
1.51332
1.37127
1.25912
1.16793
1.07529
0.988303
0.940548
0.898382
0.8608
0.827031
0.796469
0.768626
0.743113
0.719607
0.697923
0.676329
0.547248
0.608821
0.72727
0.97556
1.61375
2.82602
4.58023
3.40684
2.81458
2.35092
2.01566
1.76958
1.58395
1.43997
1.32532
1.23176
1.15375
1.08742
1.03004
0.957516
0.917089
0.880637
0.847538
0.817307
0.789552
0.763947
0.740224
0.718146
0.697618
0.676914
0.544445
0.594494
0.680213
0.829595
1.06275
1.47694
1.79727
1.64284
1.60416
1.52858
1.44516
1.36359
1.28823
1.22011
1.15899
1.10417
1.05482
1.01015
0.969303
0.932277
0.898241
0.866844
0.83777
0.810751
0.785559
0.762002
0.739922
0.719165
0.699725
0.679783
0.542873
0.586159
0.65298
0.752465
0.887334
1.03626
1.16296
1.2469
1.27257
1.26563
1.24164
1.20655
1.16762
1.12768
1.08829
1.05025
1.01396
0.979547
0.946943
0.916226
0.887247
0.859882
0.834033
0.809604
0.786498
0.764621
0.74389
0.724204
0.705664
0.686219
0.54306
0.585334
0.644391
0.721598
0.815325
0.915115
1.00467
1.07225
1.11112
1.12683
1.12582
1.11542
1.0964
1.07306
1.04721
1.02012
0.99262
0.965227
0.938292
0.912076
0.886707
0.862254
0.838744
0.816183
0.794565
0.773862
0.754057
0.735071
0.717157
0.697812
0.545702
0.594066
0.655154
0.725888
0.803052
0.880737
0.95101
1.00745
1.04638
1.06892
1.07767
1.0762
1.06851
1.05408
1.03579
1.01504
0.99277
0.96968
0.946245
0.922823
0.899668
0.876953
0.854794
0.833267
0.812426
0.792286
0.772883
0.75412
0.736489
0.716703
0.552152
0.616793
0.690544
0.766079
0.839572
0.907945
0.967748
1.01602
1.05111
1.07342
1.08436
1.0856
1.08161
1.07139
1.05627
1.0383
1.01834
0.9971
0.975095
0.952736
0.930328
0.908097
0.886207
0.864772
0.843885
0.823574
0.803944
0.784785
0.767043
0.746074
0.565516
0.663572
0.764464
0.855628
0.933632
0.998617
1.05133
1.09201
1.12089
1.13895
1.147
1.14673
1.14181
1.13078
1.11531
1.09695
1.07654
1.05473
1.03206
1.00892
0.985648
0.962474
0.939589
0.91711
0.895172
0.87376
0.853118
0.832713
0.814417
0.791199
0.59405
0.759332
0.910374
1.02869
1.11576
1.17821
1.22275
1.25311
1.27165
1.28086
1.28075
1.27549
1.26399
1.24787
1.22825
1.20609
1.18214
1.157
1.13116
1.105
1.07883
1.05287
1.02733
1.00227
0.977924
0.954085
0.931384
0.908417
0.889068
0.861924
0.664517
0.975826
1.21598
1.37035
1.46218
1.51287
1.54043
1.55157
1.55093
1.54436
1.52981
1.51038
1.48691
1.46025
1.43119
1.40044
1.36859
1.33613
1.30347
1.27093
1.23879
1.2072
1.17642
1.14633
1.11743
1.08893
1.06259
1.03469
1.01369
0.979629
0.896601
1.57466
1.95166
2.11934
2.17994
2.18183
2.16688
2.13508
2.09666
2.05577
2.0121
1.96652
1.91943
1.87161
1.82343
1.77522
1.72729
1.67994
1.63345
1.588
1.54386
1.50098
1.45982
1.41969
1.38205
1.34415
1.31119
1.27321
1.24941
1.2021
2.2513
3.88474
4.19891
4.152
4.01773
3.84999
3.69782
3.55851
3.43019
3.31091
3.19819
3.09072
2.9869
2.88865
2.79464
2.70414
2.61694
2.533
2.45241
2.37511
2.30138
2.23063
2.16402
2.09902
2.04021
1.97885
1.93007
1.86775
1.83521
1.75722
25.3733
18.8428
15.4875
13.6011
12.3882
11.529
10.8584
10.2975
9.80557
9.35985
8.94865
8.56549
8.20682
7.87146
7.55679
7.26126
6.9838
6.72346
6.4793
6.25027
6.03565
5.83379
5.64545
5.46578
5.30256
5.13725
5.00377
4.83661
4.75247
4.53707
0.554923
0.65054
0.894043
2.54461
17.879
6.76987
4.12433
2.99515
2.37396
1.98267
1.71363
1.51686
1.36642
1.2476
1.1345
1.03256
0.974443
0.924298
0.880535
0.841947
0.807605
0.776782
0.74891
0.723528
0.700338
0.677528
0.553677
0.642234
0.852097
2.20606
86.2446
19.0305
6.15198
3.85806
2.85045
2.28272
1.92014
1.66893
1.48429
1.34249
1.22994
1.11991
1.01979
0.964648
0.916772
0.874757
0.837528
0.80425
0.774263
0.747052
0.722194
0.699424
0.676961
0.551397
0.629416
0.787482
1.48349
6.29178
8.69496
4.63493
3.22723
2.50538
2.06755
1.77509
1.56639
1.40978
1.28753
1.18908
1.08966
0.997339
0.947378
0.903499
0.864587
0.829782
0.798408
0.769924
0.743906
0.719998
0.69799
0.676151
0.548639
0.61611
0.755086
1.09364
2.20039
6.50035
10.5101
6.86477
4.36515
3.17259
2.50521
2.08452
1.79795
1.59142
1.43586
1.31436
1.21651
1.13568
1.05096
0.970242
0.926499
0.887485
0.852388
0.820589
0.791594
0.765003
0.740495
0.717798
0.69677
0.675712
0.545733
0.601258
0.70321
0.904722
1.33241
2.01558
2.5609
2.56083
2.30661
2.03689
1.81146
1.63065
1.48591
1.3687
1.27226
1.19154
1.12285
1.06348
1.01141
0.943545
0.906113
0.872045
0.840856
0.812163
0.78565
0.761051
0.738143
0.716728
0.696746
0.676487
0.5434
0.589533
0.665985
0.79172
0.975559
1.1983
1.37183
1.44712
1.44529
1.41056
1.35378
1.29308
1.2336
1.17751
1.12555
1.07776
1.03388
0.993498
0.956084
0.921771
0.889911
0.860273
0.832627
0.806772
0.782532
0.759759
0.738325
0.718099
0.699101
0.679517
0.542211
0.583128
0.644914
0.733698
0.850008
0.980002
1.09247
1.16658
1.19912
1.20251
1.18973
1.16413
1.13323
1.09984
1.06575
1.032
0.999195
0.967606
0.937308
0.908471
0.881028
0.854931
0.830132
0.806573
0.784191
0.762914
0.742683
0.723412
0.705224
0.68606
0.542677
0.583607
0.639989
0.71208
0.797743
0.888714
0.971114
1.03421
1.0737
1.09264
1.09589
1.08931
1.07469
1.0549
1.03209
1.00758
0.982238
0.956678
0.931289
0.906368
0.882085
0.858541
0.835793
0.813873
0.792794
0.772544
0.753121
0.734456
0.716818
0.69769
0.545504
0.593175
0.652888
0.721086
0.79445
0.867782
0.93423
0.988066
1.02633
1.04962
1.06004
1.0601
1.05446
1.04216
1.02557
1.00636
0.985461
0.963554
0.941141
0.918597
0.896193
0.87412
0.852509
0.83145
0.811007
0.791207
0.772094
0.753575
0.736162
0.716542
0.552069
0.61641
0.689539
0.763882
0.835481
0.901566
0.959194
1.00582
1.0401
1.06236
1.0738
1.0758
1.07252
1.06344
1.0493
1.03223
1.01311
0.992616
0.971279
0.949508
0.927615
0.905834
0.884335
0.863239
0.842646
0.82259
0.803179
0.784207
0.766636
0.745796
0.565495
0.663478
0.764175
0.854867
0.932008
0.995816
1.04726
1.08681
1.11493
1.13261
1.14067
1.14056
1.13593
1.12539
1.11042
1.09257
1.07264
1.0513
1.02905
1.0063
0.983379
0.960519
0.937913
0.91568
0.893961
0.872739
0.852266
0.832004
0.813845
0.790728
0.594057
0.759393
0.910496
1.02875
1.11551
1.17736
1.22115
1.25068
1.26858
1.27727
1.27696
1.27153
1.25999
1.24402
1.22462
1.20271
1.17902
1.15415
1.12858
1.10267
1.07674
1.051
1.02566
1.00079
0.976606
0.952913
0.930344
0.907488
0.888252
0.861192
0.664533
0.975974
1.21637
1.37095
1.46278
1.51318
1.54024
1.55065
1.54956
1.5424
1.52728
1.5076
1.48397
1.45725
1.42821
1.39754
1.36582
1.3335
1.30101
1.26864
1.23666
1.20524
1.1746
1.14465
1.11589
1.0875
1.06127
1.03345
1.01255
0.978562
0.896614
1.57489
1.95231
2.12034
2.18109
2.1827
2.1674
2.1349
2.09585
2.05434
2.0101
1.96413
1.91679
1.8688
1.82054
1.77232
1.72444
1.67718
1.6308
1.58548
1.54147
1.49872
1.45769
1.41767
1.38015
1.34233
1.30947
1.27155
1.24783
1.20058
2.2513
3.8851
4.19976
4.15297
4.01869
3.85041
3.69755
3.55742
3.42835
3.30845
3.19524
3.08746
2.98355
2.88507
2.79096
2.70046
2.61333
2.5295
2.44905
2.3719
2.29832
2.22771
2.16122
2.09632
2.03762
1.9763
1.92762
1.86531
1.8328
1.75482
25.3732
18.8423
15.4852
13.5965
12.3808
11.5193
10.8469
10.2852
9.79317
9.34796
8.93767
8.55565
8.19816
7.86379
7.55007
7.25539
6.97863
6.71884
6.47509
6.24633
6.03187
5.83005
5.64169
5.4619
5.29857
5.133
4.99938
4.83184
4.74759
4.5317
0.551762
0.632783
0.825084
1.44834
5.5918
103.074
7.79246
4.42642
3.13196
2.44898
2.03054
1.74958
1.54827
1.39667
1.27795
1.18207
1.08717
0.998713
0.948615
0.904637
0.865641
0.830759
0.799316
0.770771
0.744698
0.720742
0.698695
0.676801
0.550635
0.626699
0.796278
1.29177
3.90181
60.2472
33.8201
6.44938
3.99459
2.92842
2.33455
1.95894
1.70142
1.51425
1.37186
1.25949
1.16818
1.07545
0.988411
0.940628
0.898442
0.860847
0.827067
0.796498
0.768649
0.743131
0.719622
0.697935
0.676339
0.548643
0.616133
0.755176
1.09415
2.20443
6.5826
10.5028
6.88959
4.37807
3.17774
2.50784
2.08609
1.79894
1.59206
1.43628
1.31463
1.21669
1.1358
1.05105
0.970297
0.92654
0.887517
0.852413
0.820608
0.79161
0.765015
0.740505
0.717807
0.696777
0.675718
0.546266
0.604072
0.713278
0.938965
1.46025
2.34315
3.57288
3.43552
2.86932
2.39679
2.04972
1.79455
1.60246
1.45391
1.336
1.24013
1.16043
1.09288
1.01954
0.948269
0.909446
0.874326
0.842323
0.812992
0.785972
0.760969
0.737742
0.716081
0.695897
0.675509
0.543938
0.592501
0.676319
0.822759
1.05069
1.47425
1.78869
1.88775
1.8275
1.7068
1.58098
1.46625
1.36603
1.27955
1.20486
1.13991
1.08291
1.03238
0.987144
0.926513
0.892789
0.861702
0.832919
0.806173
0.781238
0.75792
0.736056
0.715494
0.696216
0.67651
0.542179
0.5838
0.649922
0.751244
0.891179
1.05059
1.18563
1.26318
1.28691
1.27776
1.24954
1.21066
1.16855
1.12611
1.08484
1.04544
1.00817
0.973057
0.939907
0.908977
0.87985
0.852433
0.826598
0.802226
0.779206
0.757439
0.736834
0.717289
0.698862
0.679719
0.541459
0.579683
0.635789
0.712945
0.810183
0.916699
1.01208
1.08025
1.1179
1.13109
1.12766
1.11357
1.09161
1.06584
1.03809
1.00957
0.981043
0.952957
0.925551
0.899084
0.873588
0.849109
0.825651
0.803207
0.781751
0.761245
0.741656
0.722916
0.705182
0.68636
0.542265
0.581729
0.635118
0.701488
0.778247
0.858718
0.932524
0.990968
1.03049
1.05247
1.06016
1.05761
1.04819
1.03263
1.0135
0.992151
0.96952
0.946263
0.922824
0.899545
0.876642
0.854256
0.832482
0.811383
0.790994
0.771326
0.752391
0.734134
0.716852
0.697984
0.545319
0.592311
0.650564
0.71594
0.784946
0.853128
0.914933
0.965655
1.00287
1.02674
1.03881
1.04096
1.03722
1.02758
1.01309
0.995799
0.976594
0.95617
0.935044
0.91361
0.89216
0.870903
0.849989
0.829526
0.809592
0.790225
0.771481
0.753272
0.736138
0.716712
0.552017
0.616154
0.688723
0.761821
0.831321
0.894695
0.949659
0.994221
1.02738
1.04939
1.06126
1.06415
1.06161
1.05383
1.04087
1.02492
1.00683
0.987263
0.966757
0.945722
0.924478
0.903263
0.882258
0.861591
0.84137
0.821635
0.802503
0.783764
0.766416
0.74572
0.565511
0.663552
0.764203
0.854517
0.930775
0.993233
1.04313
1.08126
1.10834
1.12541
1.13336
1.13339
1.129
1.11896
1.10457
1.08731
1.06797
1.04719
1.02546
1.00319
0.980695
0.958224
0.935965
0.914041
0.892595
0.871612
0.851353
0.831267
0.813289
0.790284
0.594097
0.759625
0.910987
1.02936
1.11591
1.17712
1.21999
1.24847
1.2655
1.27341
1.27275
1.26703
1.25531
1.23946
1.22025
1.1986
1.1752
1.15064
1.12537
1.09977
1.07412
1.04866
1.02356
0.998915
0.974938
0.951427
0.929029
0.906306
0.887225
0.860256
0.66457
0.976275
1.21714
1.37216
1.46415
1.51427
1.54073
1.55018
1.54844
1.54041
1.52449
1.50438
1.48041
1.45353
1.42445
1.39382
1.3622
1.33004
1.29772
1.26554
1.23376
1.20253
1.17208
1.1423
1.11371
1.08547
1.05939
1.03167
1.0109
0.976995
0.896639
1.57525
1.95334
2.12197
2.18302
2.18432
2.16856
2.13509
2.09513
2.05269
2.0076
1.96101
1.91324
1.86493
1.81649
1.7682
1.72033
1.67314
1.62688
1.58171
1.53787
1.49528
1.45442
1.41455
1.37718
1.33948
1.30676
1.26892
1.24532
1.19815
2.25131
3.8856
4.20099
4.15436
4.02008
3.85102
3.69713
3.55577
3.42555
3.30466
3.19068
3.08233
2.97821
2.87935
2.78504
2.69449
2.60742
2.52372
2.44345
2.3665
2.29313
2.2227
2.15641
2.09165
2.03312
1.97188
1.92336
1.86106
1.82864
1.7508
25.3732
18.8416
15.4819
13.5897
12.37
11.5047
10.8294
10.2659
9.77318
9.32821
8.91882
8.53808
8.18204
7.84897
7.53653
7.24302
6.96728
6.70833
6.46524
6.23695
6.02282
5.82119
5.63293
5.45307
5.28972
5.12385
4.99022
4.82225
4.73767
4.52228
0.548133
0.613354
0.743198
1.02201
1.82138
4.00098
6.0042
4.04665
3.13389
2.53238
2.12793
1.84341
1.63481
1.47631
1.35202
1.25181
1.16903
1.09919
1.03916
0.965582
0.923425
0.885607
0.851421
0.820321
0.791867
0.765698
0.741518
0.71907
0.698239
0.677283
0.547259
0.60888
0.7275
0.976546
1.61853
3.21704
4.62334
3.444
2.82741
2.35767
2.01966
1.77215
1.58567
1.44115
1.32613
1.23233
1.15415
1.08771
1.03025
0.957658
0.917199
0.880722
0.847605
0.817361
0.789596
0.763982
0.740253
0.71817
0.697638
0.67693
0.54574
0.601296
0.703346
0.90526
1.33471
2.02394
2.56935
2.56773
2.31178
2.04023
1.81361
1.63209
1.4869
1.3694
1.27276
1.1919
1.12311
1.06367
1.01155
0.943641
0.906188
0.872104
0.840903
0.812201
0.785681
0.761076
0.738164
0.716746
0.696761
0.676499
0.543942
0.592518
0.676372
0.822925
1.05117
1.47568
1.7904
1.88926
1.82882
1.70782
1.58171
1.46678
1.36641
1.27983
1.20506
1.14006
1.08302
1.03247
0.987211
0.926558
0.892825
0.861731
0.832942
0.806191
0.781253
0.757932
0.736066
0.715503
0.696224
0.676516
0.542256
0.584403
0.652566
0.759462
0.909816
1.15166
1.34939
1.45419
1.46906
1.43346
1.37567
1.31212
1.24949
1.19064
1.13646
1.08691
1.04164
1.00018
0.962061
0.909806
0.879935
0.851969
0.825716
0.801026
0.777765
0.75581
0.735056
0.715399
0.696878
0.677726
0.54109
0.578674
0.635706
0.717189
0.822991
0.940063
1.04443
1.11581
1.15184
1.1602
1.15185
1.13179
1.1051
1.07532
1.0443
1.01315
0.982517
0.952771
0.924035
0.896621
0.870353
0.845275
0.821359
0.798564
0.776846
0.756148
0.736422
0.7176
0.699786
0.681076
0.540846
0.576808
0.62795
0.695066
0.776161
0.863225
0.943211
1.0049
1.04459
1.06452
1.06919
1.06374
1.05059
1.03212
1.01059
0.987289
0.963104
0.938625
0.914228
0.890238
0.866803
0.844036
0.822004
0.800745
0.780272
0.760582
0.741671
0.723492
0.706244
0.687746
0.541994
0.580405
0.631322
0.692708
0.761564
0.832503
0.898073
0.951748
0.990434
1.01443
1.02577
1.02691
1.02188
1.0107
0.995196
0.977055
0.957204
0.936329
0.914921
0.893362
0.871909
0.850746
0.830002
0.809768
0.790106
0.771047
0.752625
0.734793
0.717891
0.699257
0.545269
0.591985
0.649261
0.712323
0.777439
0.840765
0.898019
0.945512
0.981314
1.00534
1.01868
1.02271
1.02062
1.0135
1.00112
0.985751
0.968267
0.949362
0.929564
0.909282
0.888823
0.868418
0.848232
0.828389
0.808982
0.790063
0.771701
0.753807
0.73697
0.717708
0.552088
0.616398
0.688867
0.76118
0.828962
0.88986
0.942174
0.984551
1.01635
1.03784
1.04988
1.05348
1.05154
1.04491
1.03308
1.01821
1.00112
0.982481
0.962809
0.94252
0.921933
0.901296
0.880795
0.860565
0.840723
0.821313
0.802465
0.783957
0.766846
0.746261
0.565627
0.664064
0.76511
0.855492
0.93123
0.992551
1.04095
1.07756
1.10343
1.11967
1.12727
1.12727
1.12296
1.11323
1.09932
1.08259
1.06378
1.04351
1.02227
1.00046
0.978393
0.956305
0.93439
0.912773
0.8916
0.870855
0.850811
0.830895
0.813114
0.790187
0.594208
0.760218
0.912255
1.0312
1.11788
1.17867
1.22066
1.24801
1.26399
1.27087
1.26971
1.26342
1.25137
1.23543
1.21629
1.19478
1.1716
1.14728
1.12228
1.09694
1.07156
1.04634
1.02149
0.997059
0.973286
0.949954
0.927731
0.905136
0.886228
0.859323
0.664652
0.976854
1.21857
1.37444
1.46693
1.51695
1.54282
1.55117
1.54864
1.53937
1.52256
1.50171
1.47719
1.44994
1.42065
1.38993
1.35831
1.32623
1.29404
1.26201
1.23041
1.19935
1.16908
1.13948
1.11106
1.08296
1.05704
1.02943
1.00882
0.974987
0.896682
1.57582
1.95491
2.12445
2.18605
2.1871
2.17081
2.13619
2.09505
2.05134
2.00514
1.95765
1.90919
1.86036
1.81157
1.76307
1.71512
1.66794
1.62176
1.57671
1.53302
1.49061
1.44991
1.41021
1.37302
1.33545
1.30291
1.26516
1.24169
1.19469
2.25132
3.88626
4.20257
4.15616
4.0219
3.85182
3.69655
3.55353
3.42171
3.29937
3.18425
3.07503
2.97044
2.87101
2.77636
2.68567
2.59861
2.51503
2.43495
2.35823
2.2851
2.21493
2.14888
2.08433
2.02603
1.96494
1.91659
1.85451
1.82176
1.74509
25.3732
18.8407
15.4778
13.5809
12.3555
11.4849
10.805
10.2382
9.7437
9.29819
8.88921
8.50954
8.15492
7.82323
7.51228
7.22021
6.94579
6.68799
6.44586
6.21836
6.00484
5.80365
5.61572
5.43606
5.27276
5.10717
4.97235
4.80894
4.70569
4.51896
0.545063
0.597475
0.689153
0.855271
1.12435
1.59639
1.96809
1.77947
1.70554
1.6046
1.50197
1.40654
1.32102
1.24541
1.17869
1.11963
1.06703
1.01984
0.976985
0.938384
0.903096
0.870691
0.840803
0.813123
0.787394
0.763396
0.740953
0.719898
0.700211
0.680065
0.544457
0.594554
0.680405
0.830206
1.06432
1.47917
1.80455
1.64653
1.60748
1.53107
1.447
1.36496
1.28926
1.22089
1.15958
1.10462
1.05516
1.01042
0.96951
0.932438
0.898368
0.866946
0.837852
0.810817
0.785614
0.762047
0.73996
0.719197
0.699752
0.679805
0.543409
0.589575
0.666112
0.792086
0.976466
1.19995
1.37386
1.4491
1.44713
1.41206
1.35495
1.29397
1.23429
1.17804
1.12597
1.07808
1.03413
0.993693
0.956238
0.921893
0.890008
0.860352
0.832691
0.806824
0.782575
0.759795
0.738355
0.718124
0.699123
0.679534
0.542184
0.583823
0.649989
0.751417
0.89157
1.05127
1.18647
1.26404
1.28773
1.27848
1.25013
1.21114
1.16892
1.12641
1.08508
1.04563
1.00832
0.973176
0.940003
0.909054
0.879912
0.852483
0.82664
0.80226
0.779235
0.757463
0.736854
0.717306
0.698877
0.679731
0.541092
0.578684
0.635731
0.717247
0.823109
0.940266
1.04469
1.11608
1.15211
1.16045
1.15206
1.13196
1.10524
1.07544
1.04439
1.01322
0.982581
0.952823
0.924077
0.896655
0.870382
0.845299
0.821378
0.798581
0.776859
0.756159
0.736432
0.717608
0.699794
0.681082
0.540457
0.575486
0.626172
0.69393
0.776983
0.866752
0.949232
1.01216
1.05182
1.0708
1.07414
1.0674
1.05272
1.03305
1.01051
0.986384
0.96154
0.93655
0.911761
0.887499
0.863856
0.84093
0.818779
0.797436
0.776911
0.757196
0.738278
0.720111
0.702864
0.684476
0.540633
0.575543
0.623535
0.683605
0.753092
0.826066
0.893993
0.949284
0.988545
1.01221
1.02272
1.02287
1.01682
1.00443
0.988138
0.969344
0.948985
0.927727
0.906044
0.88431
0.862756
0.841553
0.82082
0.800638
0.78106
0.76211
0.743812
0.726129
0.709325
0.691044
0.542073
0.580463
0.630257
0.688394
0.751511
0.815139
0.873918
0.923129
0.960248
0.98505
0.99874
1.00292
1.00069
0.993367
0.980971
0.965604
0.94819
0.929426
0.909832
0.889809
0.869654
0.849587
0.829764
0.810304
0.791289
0.77277
0.754798
0.737328
0.720768
0.702263
0.545521
0.592857
0.650267
0.712275
0.77479
0.834379
0.88777
0.932271
0.966418
0.990073
1.00404
1.0094
1.00843
1.00322
0.992631
0.978853
0.962824
0.945217
0.926564
0.907277
0.887677
0.868008
0.848452
0.829144
0.810191
0.791653
0.773613
0.755975
0.739403
0.720201
0.552411
0.617673
0.691003
0.763542
0.830551
0.889741
0.939885
0.980205
1.01049
1.03113
1.04294
1.04683
1.0452
1.03926
1.02824
1.01418
0.99788
0.979969
0.960966
0.941278
0.921227
0.901061
0.880971
0.861099
0.841566
0.822418
0.803799
0.785465
0.768566
0.747997
0.56594
0.665439
0.767733
0.859065
0.93505
0.995809
1.04305
1.07823
1.10278
1.11792
1.12484
1.12456
1.11999
1.1102
1.0965
1.08005
1.06156
1.04163
1.02073
0.999241
0.977478
0.955673
0.934017
0.912633
0.891668
0.871105
0.85123
0.83143
0.813831
0.790896
0.594459
0.761492
0.914959
1.03525
1.12274
1.18358
1.22494
1.25117
1.26599
1.27155
1.26966
1.26246
1.24982
1.23347
1.2141
1.19251
1.16933
1.14508
1.12019
1.095
1.06978
1.04472
1.02003
0.995764
0.972144
0.948945
0.926863
0.904349
0.885615
0.8587
0.664816
0.977932
1.22115
1.37853
1.47207
1.52234
1.54778
1.55496
1.55148
1.54067
1.52271
1.50078
1.4754
1.44748
1.41771
1.38668
1.35488
1.32271
1.29051
1.25853
1.22702
1.19607
1.16593
1.13646
1.10818
1.0802
1.05442
1.02688
1.00645
0.972627
0.896761
1.57672
1.9573
2.12825
2.19076
2.19171
2.17488
2.13894
2.09635
2.05099
2.00334
1.95458
1.90511
1.85548
1.80608
1.75718
1.70898
1.66168
1.61548
1.57049
1.52691
1.48462
1.44409
1.40454
1.36753
1.3301
1.29774
1.2601
1.23679
1.18981
2.25134
3.8871
4.2046
4.15848
4.02423
3.85286
3.69577
3.55059
3.41663
3.29232
3.17556
3.06506
2.95967
2.85942
2.76422
2.67324
2.5861
2.50259
2.4227
2.34622
2.27339
2.2035
2.13778
2.0735
2.01552
1.95463
1.90659
1.84457
1.81241
1.73476
25.3732
18.8397
15.4727
13.5698
12.3368
11.4586
10.7719
10.1999
9.70182
9.25444
8.84493
8.46571
8.1122
7.78183
7.47245
7.18205
6.90926
6.65297
6.41222
6.18592
5.97344
5.77309
5.58592
5.40674
5.24412
5.07835
4.94536
4.7769
4.69291
4.47636
0.54327
0.587993
0.657952
0.764439
0.911897
1.07622
1.21329
1.2998
1.31861
1.30525
1.27307
1.23199
1.18809
1.14414
1.10155
1.06095
1.02261
0.986536
0.95259
0.920783
0.890917
0.862827
0.836378
0.811453
0.787937
0.76572
0.744706
0.724784
0.706047
0.686438
0.542883
0.586209
0.653121
0.752827
0.88812
1.03754
1.16465
1.24872
1.27426
1.26711
1.24283
1.20751
1.16839
1.12829
1.08878
1.05064
1.01427
0.979799
0.947147
0.916391
0.887381
0.859992
0.834124
0.809679
0.786561
0.764674
0.743935
0.724241
0.705696
0.686246
0.542219
0.583165
0.645015
0.733944
0.850521
0.980842
1.09355
1.16773
1.20023
1.2035
1.19059
1.16483
1.13379
1.1003
1.06612
1.03231
0.99944
0.967805
0.93747
0.908604
0.881137
0.855021
0.830207
0.806635
0.784243
0.762958
0.74272
0.723443
0.705251
0.686082
0.541464
0.579707
0.635851
0.713087
0.810463
0.917149
1.01265
1.08087
1.11853
1.13166
1.12817
1.114
1.09197
1.06614
1.03834
1.00978
0.98121
0.953095
0.925665
0.899178
0.873667
0.849174
0.825706
0.803252
0.781789
0.761277
0.741683
0.72294
0.705202
0.686377
0.540849
0.57682
0.627981
0.695134
0.776288
0.863425
0.943468
1.00518
1.04488
1.0648
1.06944
1.06396
1.05079
1.03229
1.01073
0.987404
0.963201
0.938706
0.914296
0.890295
0.86685
0.844076
0.822038
0.800773
0.780296
0.760603
0.741689
0.723507
0.706257
0.687757
0.540634
0.575548
0.623547
0.683628
0.753134
0.82613
0.894076
0.949377
0.988643
1.0123
1.02281
1.02295
1.0169
1.00449
0.988193
0.969391
0.949024
0.927761
0.906073
0.884334
0.862776
0.841571
0.820835
0.800651
0.781071
0.76212
0.74382
0.726136
0.709331
0.691049
0.54113
0.577059
0.624626
0.681309
0.743887
0.807726
0.867093
0.91689
0.954406
0.979377
0.993078
0.997198
0.994848
0.987353
0.974894
0.959466
0.942016
0.923246
0.903673
0.8837
0.863616
0.843637
0.823914
0.804561
0.78566
0.767259
0.749405
0.732062
0.71559
0.697321
0.542778
0.582947
0.633805
0.691196
0.751297
0.810236
0.864071
0.909491
0.944632
0.969169
0.983869
0.989898
0.989241
0.984464
0.97439
0.960989
0.945345
0.928135
0.909885
0.891009
0.871823
0.852567
0.83342
0.814516
0.795957
0.777807
0.760134
0.742883
0.726568
0.707998
0.546317
0.595855
0.655255
0.718149
0.779953
0.837411
0.888027
0.929964
0.962299
0.985031
0.99885
1.0047
1.00424
0.999997
0.990597
0.977799
0.962711
0.945966
0.928081
0.909466
0.890444
0.871266
0.852124
0.83316
0.81449
0.796179
0.778327
0.760812
0.744422
0.7251
0.55319
0.62079
0.696616
0.771011
0.838689
0.897301
0.946011
0.984583
1.01327
1.03267
1.0437
1.04726
1.04552
1.03957
1.02885
1.01513
0.999183
0.981635
0.962979
0.943612
0.923849
0.903937
0.884068
0.864382
0.845007
0.825985
0.807478
0.789197
0.772443
0.751721
0.566615
0.668363
0.773364
0.867087
0.944527
1.00559
1.05218
1.08612
1.10925
1.12298
1.12875
1.12781
1.12248
1.11208
1.09815
1.08157
1.06304
1.04311
1.02226
1.00085
0.979178
0.957465
0.9359
0.9146
0.893714
0.873212
0.853408
0.833616
0.816154
0.79306
0.594969
0.764006
0.920192
1.04311
1.13245
1.19403
1.23511
1.26029
1.2738
1.27769
1.27476
1.26615
1.25248
1.23526
1.21527
1.19322
1.16972
1.14525
1.12023
1.09496
1.06971
1.04465
1.01999
0.99575
0.972177
0.949014
0.927001
0.904478
0.885895
0.858847
0.665136
0.979925
1.22573
1.38572
1.48114
1.53216
1.55735
1.56327
1.55869
1.54596
1.52644
1.50299
1.4763
1.4473
1.41669
1.38501
1.35274
1.32024
1.28782
1.25571
1.22413
1.19316
1.16305
1.13361
1.1054
1.07747
1.05181
1.02428
1.00402
0.970142
0.896909
1.57821
1.96112
2.13423
2.19819
2.19924
2.18182
2.14436
2.09994
2.05247
2.00291
1.95242
1.90152
1.8507
1.80037
1.75078
1.7021
1.65449
1.60813
1.56307
1.5195
1.47728
1.43687
1.39743
1.3606
1.32329
1.29113
1.25359
1.23043
1.1836
2.25137
3.88825
4.20734
4.16158
4.02735
3.85429
3.6948
3.54679
3.40999
3.28302
3.16402
3.05172
2.94506
2.84369
2.7477
2.65625
2.5689
2.4854
2.40567
2.32944
2.25695
2.18741
2.1221
2.05815
2.00061
1.93999
1.89235
1.83063
1.79858
1.72155
25.3732
18.8385
15.4663
13.5555
12.3124
11.4236
10.7271
10.1471
9.6432
9.19213
8.78074
8.40109
8.04819
7.71898
7.41124
7.12275
6.85197
6.59769
6.35884
6.13431
5.92346
5.72454
5.53873
5.36058
5.19914
5.03402
4.90203
4.73416
4.65062
4.43508
0.543297
0.5864
0.647115
0.727555
0.82648
0.932254
1.02643
1.09626
1.1342
1.14765
1.14417
1.13081
1.10932
1.08383
1.05615
1.02753
0.998746
0.970284
0.942449
0.915481
0.889484
0.864507
0.840558
0.817629
0.795702
0.77474
0.754716
0.735548
0.717476
0.698002
0.543069
0.585372
0.644489
0.721821
0.815758
0.915792
1.00556
1.07324
1.1121
1.12773
1.12663
1.1161
1.09698
1.07355
1.04761
1.02046
0.992899
0.965458
0.938484
0.912236
0.88684
0.862366
0.838838
0.816262
0.794632
0.773919
0.754105
0.735113
0.717193
0.697842
0.542683
0.583636
0.640064
0.712245
0.798053
0.889197
0.97174
1.03492
1.07441
1.09331
1.0965
1.08985
1.07514
1.05528
1.03241
1.00785
0.982465
0.956869
0.931448
0.906502
0.882197
0.858635
0.835873
0.813941
0.792851
0.772593
0.753163
0.734492
0.716849
0.697716
0.542269
0.581749
0.635169
0.701595
0.778443
0.859018
0.932912
0.991408
1.03095
1.05291
1.06056
1.05798
1.0485
1.0329
1.01373
0.992349
0.969688
0.946405
0.922944
0.899647
0.876728
0.854329
0.832544
0.811435
0.791038
0.771364
0.752424
0.734162
0.716877
0.698005
0.541997
0.580417
0.631352
0.692769
0.761671
0.832666
0.898285
0.951992
0.990692
1.01468
1.02601
1.02713
1.02208
1.01087
0.995345
0.977184
0.957315
0.936423
0.915002
0.893431
0.871967
0.850796
0.830045
0.809805
0.790137
0.771074
0.752649
0.734813
0.717909
0.699271
0.542075
0.58047
0.630272
0.688423
0.751562
0.815215
0.874017
0.923244
0.960372
0.985175
0.998861
1.00303
1.00079
0.99346
0.981052
0.965675
0.948252
0.929479
0.909878
0.889849
0.869689
0.849616
0.82979
0.810325
0.791308
0.772786
0.754812
0.73734
0.720779
0.702272
0.542778
0.582949
0.63381
0.691206
0.751314
0.810262