/*--------------------------------*- C++ -*----------------------------------*\
  =========                 |
  \\      /  F ield         | OpenFOAM: The Open Source CFD Toolbox
   \\    /   O peration     | Website:  https://openfoam.org
    \\  /    A nd           | Version:  7
     \\/     M anipulation  |
\*---------------------------------------------------------------------------*/
FoamFile
{
    version     2.0;
    format      ascii;
    class       volScalarField;
    location    "800";
    object      p;
}
// * * * * * * * * * * * * * * * * * * * * * * * * * * * * * * * * * * * * * //

dimensions      [0 2 -2 0 0 0 0];

internalField   nonuniform List<scalar> 
27370
(
121.303
190.909
291.684
500.956
-40.9806
-25.2314
-15.6018
-9.33409
-5.16664
-2.51032
-0.893289
0.0471842
0.565511
0.917767
0.981731
0.819917
0.803947
0.747723
0.672377
0.598435
0.528186
0.457992
0.417148
0.292152
0.619177
105.117
157.844
259.483
435.151
-40.3435
-24.0098
-14.6227
-8.66974
-4.78037
-2.30449
-0.789603
0.0962773
0.583882
0.896984
0.972711
0.832016
0.803521
0.744849
0.668687
0.594025
0.52333
0.454117
0.40838
0.302863
0.571618
85.7654
109.437
192.284
315.851
-55.1979
-34.2452
-20.1028
-12.1125
-7.14367
-3.92085
-1.8498
-0.562663
0.200851
0.622024
0.867782
0.945025
0.828944
0.79104
0.729284
0.653829
0.579979
0.510129
0.442126
0.394619
0.294547
0.534992
68.5467
71.1756
110.309
183.707
206.243
-163.985
-54.4557
-28.6811
-16.2512
-9.48872
-5.4706
-2.93707
-1.31597
-0.298437
0.313605
0.654061
0.807525
0.895384
0.811035
0.766912
0.702719
0.629445
0.557711
0.489732
0.423554
0.375096
0.278996
0.487063
52.6277
51.488
59.7689
85.7621
69.4298
11.812
-65.0206
-61.1751
-34.7742
-19.7497
-11.3073
-6.44398
-3.54966
-1.76679
-0.650047
0.0423249
0.454371
0.665898
0.740049
0.827078
0.773978
0.728159
0.66378
0.594467
0.52648
0.46174
0.398415
0.349849
0.258377
0.429457
38.3363
37.4362
37.2415
35.0521
20.6447
-2.08424
-28.057
-26.8249
-18.1284
-10.9462
-6.46025
-3.64443
-1.86303
-0.741087
-0.0412953
0.38177
0.621351
0.728914
0.786687
0.76398
0.723472
0.672862
0.612383
0.549021
0.486445
0.426425
0.367171
0.319542
0.233815
0.365952
26.9647
25.8178
23.9981
20.1549
11.5606
-5.09673
-13.9756
-16.1947
-11.5638
-7.55387
-4.7262
-2.73633
-1.40114
-0.532651
0.0205772
0.36045
0.556206
0.6504
0.677863
0.682021
0.6474
0.601877
0.549279
0.493749
0.438265
0.384431
0.33055
0.285105
0.20654
0.300118
18.7638
17.5129
15.3325
10.9852
4.93261
-3.5603
-8.55756
-9.66967
-7.48669
-5.24662
-3.4182
-2.02559
-1.04376
-0.383451
0.0478646
0.318015
0.476252
0.556371
0.586208
0.583836
0.556522
0.519442
0.476089
0.429754
0.382792
0.336494
0.289324
0.247503
0.17773
0.235336
13.2186
11.9014
9.62852
5.70228
1.31808
-3.41013
-5.95498
-6.4213
-5.21141
-3.80697
-2.56704
-1.57661
-0.846395
-0.336679
0.00635805
0.227842
0.362121
0.434515
0.465658
0.46854
0.452265
0.425988
0.393537
0.357811
0.320689
0.283215
0.244118
0.207528
0.148344
0.174542
9.76082
8.35663
6.05045
2.70895
-0.44113
-3.20249
-4.54005
-4.6593
-3.87283
-2.92341
-2.04854
-1.32388
-0.770228
-0.36814
-0.0877639
0.100486
0.220699
0.291455
0.327803
0.340351
0.336429
0.322588
0.302448
0.27852
0.252381
0.224921
0.195251
0.165616
0.118986
0.119997
7.86891
6.36097
4.05104
1.28082
-1.02242
-2.74374
-3.51693
-3.52352
-3.00512
-2.35594
-1.73305
-1.19904
-0.775094
-0.4539
-0.21984
-0.0546801
0.0579874
0.131337
0.176131
0.200451
0.210111
0.210018
0.203297
0.192137
0.177949
0.16157
0.142626
0.121722
0.0897674
0.0731563
7.07206
5.48766
3.27811
1.04621
-0.707096
-1.94055
-2.53358
-2.60834
-2.3351
-1.93586
-1.52061
-1.14346
-0.826429
-0.572744
-0.376898
-0.229443
-0.120728
-0.0424014
0.0126539
0.0501051
0.0742937
0.0888491
0.0963351
0.0986721
0.0971855
0.0927547
0.0856934
0.0752249
0.060156
0.0345603
6.94596
5.39432
3.47112
1.71409
0.277557
-0.801917
-1.44909
-1.71735
-1.70959
-1.55654
-1.34088
-1.11182
-0.896249
-0.706869
-0.54725
-0.416124
-0.310351
-0.226299
-0.160333
-0.109165
-0.070001
-0.0403418
-0.0182177
-0.00196503
0.00970086
0.0177763
0.0234537
0.0248818
0.0287626
0.00366328
7.07184
5.78674
4.32622
2.94179
1.66145
0.564247
-0.252375
-0.778286
-1.05566
-1.15849
-1.14886
-1.07283
-0.963269
-0.841635
-0.720818
-0.607895
-0.506321
-0.41737
-0.34099
-0.276387
-0.222424
-0.17773
-0.140971
-0.110789
-0.085909
-0.0652311
-0.0464948
-0.0321659
-0.00809893
-0.0224149
7.01636
6.30628
5.34019
4.24108
3.07161
1.93751
0.952499
0.179859
-0.368779
-0.721419
-0.918334
-0.999883
-1.00203
-0.953739
-0.876588
-0.785784
-0.691477
-0.600065
-0.515253
-0.438882
-0.371567
-0.313131
-0.262884
-0.219893
-0.182852
-0.150653
-0.120108
-0.0929325
-0.0505162
-0.0464954
6.89579
6.60583
5.99684
5.12895
4.09454
2.99479
1.94088
1.0239
0.292279
-0.247411
-0.613488
-0.835469
-0.946264
-0.97695
-0.953702
-0.896955
-0.821811
-0.738894
-0.655265
-0.575309
-0.501489
-0.434949
-0.375863
-0.323909
-0.278054
-0.237323
-0.198292
-0.161603
-0.105313
-0.0796973
105.067
157.855
259.28
434.354
-40.0505
-23.8443
-14.5789
-8.65877
-4.77746
-2.30367
-0.789417
0.0962884
0.583848
0.896962
0.97271
0.832018
0.803527
0.744861
0.668703
0.594043
0.523349
0.454135
0.408396
0.302874
0.571629
93.5016
130.126
228.189
381.39
-38.1566
-22.3797
-13.5546
-8.01852
-4.41568
-2.11255
-0.693755
0.140936
0.600765
0.879641
0.961077
0.839173
0.800632
0.740037
0.663619
0.588629
0.517779
0.449516
0.399805
0.313738
0.521742
78.4307
91.6567
167.336
266.608
377.51
-56.85
-32.6555
-19.0074
-11.3475
-6.65503
-3.63584
-1.69567
-0.485198
0.235991
0.634254
0.853112
0.932108
0.830684
0.785595
0.722757
0.647483
0.573698
0.503975
0.437016
0.386098
0.304595
0.487032
63.0429
63.4757
90.5117
158.86
168.093
23.9882
-139.358
-52.3983
-27.6271
-15.5894
-9.03327
-5.16775
-2.75043
-1.20992
-0.243396
0.338543
0.662293
0.798768
0.88216
0.806638
0.75843
0.69413
0.621448
0.550237
0.48273
0.417765
0.366514
0.287402
0.443445
48.6097
47.5195
52.2721
74.4591
59.623
1.08803
-55.9845
-54.612
-32.5228
-18.7999
-10.8271
-6.16739
-3.38298
-1.66969
-0.598378
0.0654745
0.46086
0.666005
0.732962
0.815949
0.764245
0.716874
0.653271
0.584899
0.517842
0.453896
0.391956
0.341249
0.264919
0.390903
35.6106
34.6191
33.7264
29.8692
17.0904
-1.15823
-24.6787
-24.0353
-16.6232
-10.2217
-6.06217
-3.41809
-1.73621
-0.674371
-0.0118838
0.388644
0.615058
0.717574
0.77606
0.7501
0.709562
0.659476
0.600184
0.538102
0.476792
0.417838
0.360118
0.31101
0.238402
0.332916
25.2092
24.0538
22.0499
17.7792
9.60867
-4.87815
-12.6586
-14.6578
-10.7604
-7.10174
-4.4534
-2.58019
-1.31498
-0.489072
0.0374488
0.360872
0.546759
0.63567
0.66054
0.664055
0.631325
0.586938
0.535796
0.48182
0.427832
0.375274
0.323034
0.276753
0.209182
0.272789
17.6544
16.4564
14.2693
9.98279
4.15791
-3.49606
-7.9813
-8.97816
-7.08098
-4.99587
-3.26979
-1.94705
-1.00729
-0.372336
0.0434473
0.304614
0.458076
0.536206
0.56517
0.564199
0.538897
0.503407
0.461801
0.417201
0.371873
0.326997
0.28152
0.239457
0.178538
0.213609
12.5282
11.2958
9.08708
5.29583
1.07116
-3.26753
-5.64311
-6.06335
-4.98199
-3.66396
-2.48506
-1.53738
-0.83424
-0.340787
-0.00748263
0.208702
0.340591
0.412552
0.444293
0.448554
0.434133
0.409655
0.379042
0.34509
0.309641
0.273654
0.236236
0.199921
0.14753
0.158053
9.33083
8.02643
5.80879
2.59735
-0.452727
-3.04293
-4.32609
-4.44425
-3.73026
-2.83475
-1.99985
-1.30405
-0.769125
-0.378558
-0.104855
0.0799261
0.198819
0.26969
0.306978
0.320939
0.318783
0.306717
0.288343
0.266114
0.241588
0.215601
0.187525
0.158589
0.116846
0.108187
7.59114
6.18999
3.97544
1.3105
-0.930136
-2.58244
-3.34728
-3.37302
-2.90288
-2.29207
-1.69868
-1.18626
-0.776626
-0.464541
-0.235816
-0.0734449
0.0381601
0.111604
0.157196
0.182739
0.193894
0.19535
0.190187
0.180545
0.16782
0.15282
0.135315
0.11542
0.0866658
0.0653347
6.87705
5.40116
3.28223
1.12521
-0.587893
-1.79367
-2.39322
-2.49081
-2.25225
-1.88224
-1.49019
-1.1303
-0.825305
-0.579581
-0.388668
-0.244019
-0.136624
-0.058591
-0.0031639
0.0350844
0.0603396
0.076079
0.0848038
0.0883874
0.088134
0.0849158
0.079075
0.0698088
0.0565204
0.0299744
6.79169
5.34482
3.49628
1.78804
0.380221
-0.684265
-1.33737
-1.62303
-1.63906
-1.50769
-1.31009
-1.09511
-0.889936
-0.707856
-0.553137
-0.425129
-0.321166
-0.23798
-0.172221
-0.12081
-0.0810953
-0.0507025
-0.0277299
-0.010565
0.00204788
0.0111138
0.0177479
0.020448
0.0250058
0.00152728
6.9363
5.73905
4.33016
2.97911
1.72416
0.64249
-0.172443
-0.706038
-0.996745
-1.11365
-1.11695
-1.05188
-0.951033
-0.836012
-0.72003
-0.61051
-0.511222
-0.423704
-0.348123
-0.28385
-0.229876
-0.184935
-0.147761
-0.117047
-0.0915563
-0.0701687
-0.0507825
-0.0352714
-0.0113053
-0.0227125
6.91101
6.23676
5.30226
4.22944
3.08435
1.96992
0.996505
0.227824
-0.322859
-0.680894
-0.88475
-0.973574
-0.982521
-0.940149
-0.867901
-0.780996
-0.689676
-0.600467
-0.51721
-0.441873
-0.375182
-0.317055
-0.266876
-0.223766
-0.186476
-0.153884
-0.122975
-0.0949575
-0.0528994
-0.0459389
6.80615
6.52229
5.93077
5.08145
4.06639
2.98578
1.94788
1.04213
0.316787
-0.220612
-0.587254
-0.811648
-0.925827
-0.960211
-0.940551
-0.887045
-0.814678
-0.734042
-0.652218
-0.573636
-0.500821
-0.434975
-0.376329
-0.324605
-0.278816
-0.237994
-0.198816
-0.161722
-0.105634
-0.0785543
85.7448
109.515
192.38
316.173
-54.5086
-34.0286
-19.9644
-12.0524
-7.12146
-3.91309
-1.84714
-0.561797
0.201088
0.62205
0.867776
0.945051
0.828971
0.791073
0.729329
0.653882
0.580037
0.510187
0.44218
0.394665
0.294578
0.535023
78.4335
91.7059
167.479
267.015
378.428
-57.3744
-32.5939
-18.9513
-11.3175
-6.64242
-3.63102
-1.69391
-0.484594
0.236163
0.634272
0.85311
0.932133
0.830709
0.785622
0.722789
0.64752
0.573737
0.504014
0.437051
0.386128
0.304615
0.487051
67.5516
69.2636
121.639
186.256
225.56
-55.5668
-29.4335
-16.7367
-9.7828
-5.6447
-3.03472
-1.36542
-0.318923
0.3093
0.656102
0.825793
0.901412
0.815749
0.766736
0.703106
0.629576
0.557486
0.489264
0.423861
0.372181
0.295182
0.454096
54.6278
53.2223
64.7349
109.411
91.1104
20.71
-93.7815
-89.9129
-46.4834
-24.9745
-14.0513
-8.04031
-4.52516
-2.35856
-0.99051
-0.134126
0.382315
0.668636
0.771696
0.849806
0.785013
0.735265
0.671735
0.601406
0.532408
0.466831
0.403758
0.352274
0.277732
0.412884
42.2808
40.9532
42.0176
43.8324
46.7993
0.0435915
-39.8696
-42.313
-27.767
-16.6821
-9.75959
-5.57418
-3.03841
-1.47501
-0.499319
0.104517
0.464331
0.650884
0.702198
0.781727
0.736695
0.689774
0.628313
0.56282
0.49844
0.436828
0.377118
0.32675
0.255054
0.363182
31.2414
30.1161
28.8406
25.6405
12.6064
-5.62884
-19.0177
-19.9694
-14.2616
-9.01265
-5.42858
-3.077
-1.55793
-0.591366
0.0140877
0.381267
0.589451
0.684306
0.738807
0.713698
0.676881
0.629345
0.573135
0.514332
0.456067
0.399783
0.344592
0.296389
0.228444
0.308335
22.3846
21.2795
19.3476
15.0185
7.19105
-3.64678
-11.0933
-12.3235
-9.40207
-6.37432
-4.04761
-2.36379
-1.21014
-0.449777
0.0378615
0.338948
0.512966
0.596989
0.620871
0.624595
0.595732
0.554875
0.507309
0.456881
0.406178
0.356529
0.307052
0.262192
0.199254
0.251486
15.8785
14.8
12.7754
8.71579
3.18832
-3.16672
-7.10809
-7.87664
-6.38209
-4.58836
-3.04109
-1.83539
-0.966588
-0.372879
0.0189381
0.267263
0.414898
0.491692
0.521706
0.523284
0.502051
0.470451
0.432659
0.391726
0.349791
0.307957
0.265386
0.225175
0.168778
0.195569
11.434
10.3446
8.33493
4.80738
0.839727
-2.97784
-5.13252
-5.49442
-4.59265
-3.42831
-2.35714
-1.48336
-0.827115
-0.360957
-0.0431492
0.165269
0.294385
0.366736
0.400621
0.408077
0.39759
0.377007
0.35018
0.319827
0.287724
0.254787
0.220307
0.186159
0.138086
0.143139
8.66353
7.51062
5.49205
2.50198
-0.367808
-2.73312
-3.95106
-4.08487
-3.48102
-2.68343
-1.92115
-1.27678
-0.775133
-0.404676
-0.142186
0.0371396
0.154409
0.226114
0.26566
0.282685
0.284088
0.275617
0.26075
0.24187
0.220492
0.197429
0.172203
0.145608
0.107879
0.0961764
7.17535
5.92757
3.89717
1.40524
-0.718431
-2.27783
-3.03862
-3.10709
-2.71753
-2.17798
-1.63914
-1.16617
-0.782826
-0.487278
-0.268113
-0.110602
-0.000670735
0.0731905
0.120483
0.148484
0.162538
0.167018
0.164868
0.158155
0.148236
0.135902
0.121037
0.103506
0.0783559
0.0559538
6.59588
5.26896
3.3096
1.28053
-0.355902
-1.52219
-2.13556
-2.27682
-2.09866
-1.78293
-1.43405
-1.10629
-0.823781
-0.592952
-0.411292
-0.271898
-0.166958
-0.0894659
-0.033326
0.00643266
0.0336912
0.0516746
0.0627443
0.0686895
0.0707705
0.0698424
0.0663106
0.0592751
0.0490752
0.0229352
6.57065
5.25909
3.53658
1.91915
0.56706
-0.471976
-1.13387
-1.44995
-1.50725
-1.41537
-1.25112
-1.06238
-0.876757
-0.708561
-0.563256
-0.441302
-0.340912
-0.259505
-0.194263
-0.142496
-0.101834
-0.0701226
-0.0456034
-0.0267584
-0.0123877
-0.00151211
0.00699826
0.0116487
0.0186723
-0.00344159
6.73521
5.64412
4.32323
3.03735
1.83027
0.777552
-0.0309565
-0.575416
-0.88748
-1.02861
-1.0549
-1.00978
-0.925192
-0.822807
-0.716276
-0.613572
-0.518992
-0.43454
-0.360772
-0.297377
-0.243588
-0.198335
-0.160493
-0.128859
-0.102266
-0.0796317
-0.0588859
-0.0418375
-0.0161289
-0.0257772
6.7252
6.10852
5.22824
4.20355
3.10197
2.02266
1.07121
0.311166
-0.241582
-0.608172
-0.823721
-0.925116
-0.946045
-0.914268
-0.850915
-0.771175
-0.685418
-0.600372
-0.5201
-0.446791
-0.381362
-0.323896
-0.273916
-0.230646
-0.19292
-0.159663
-0.127934
-0.0988842
-0.0558097
-0.0472256
6.63304
6.37117
5.8104
4.9955
4.01696
2.97196
1.96384
1.07897
0.365235
-0.168176
-0.536259
-0.765536
-0.886384
-0.927984
-0.915294
-0.86806
-0.801057
-0.724819
-0.646473
-0.57054
-0.49966
-0.435149
-0.377346
-0.326061
-0.280387
-0.239404
-0.199874
-0.16222
-0.105785
-0.0777714
68.5349
71.2028
110.503
184.021
205.649
-149.376
-54.6653
-28.6994
-16.2167
-9.45573
-5.45177
-2.92813
-1.31213
-0.296912
0.314153
0.654224
0.80761
0.895525
0.811164
0.76704
0.702855
0.629586
0.557852
0.489866
0.423674
0.375198
0.279064
0.487129
63.0439
63.4906
90.621
159.207
168.497
25.4878
-136.33
-52.6514
-27.6626
-15.5733
-9.0125
-5.15444
-2.74369
-1.20688
-0.242138
0.339022
0.662455
0.798856
0.882295
0.806759
0.758547
0.69425
0.621571
0.550357
0.482844
0.417867
0.366599
0.28746
0.443497
54.6279
53.219
64.741
109.532
91.4013
20.1799
-93.5026
-90.4538
-46.594
-25.0033
-14.052
-8.03457
-4.52025
-2.35566
-0.989061
-0.133469
0.382592
0.668746
0.771774
0.84991
0.785104
0.735351
0.67182
0.601489
0.532488
0.466905
0.403823
0.352328
0.277769
0.412917
44.6494
42.8847
43.6285
49.3099
55.3108
0.75967
-56.4608
-57.6941
-36.3808
-20.8937
-11.9481
-6.80148
-3.7628
-1.90445
-0.742412
-0.018351
0.418419
0.661503
0.719928
0.796542
0.747471
0.698933
0.637268
0.570808
0.505457
0.443017
0.382699
0.332021
0.260366
0.374527
34.7612
33.3772
31.9469
30.4247
15.8453
-1.73345
-25.4174
-29.7042
-21.7439
-13.8605
-8.34924
-4.82293
-2.62433
-1.25332
-0.395311
0.136225
0.453839
0.620916
0.655105
0.72648
0.692835
0.648741
0.590811
0.529804
0.469579
0.411583
0.355077
0.306175
0.237906
0.328241
25.9912
24.8649
23.0441
19.2514
9.48727
-4.55212
-14.1001
-15.1728
-11.4723
-7.5829
-4.68322
-2.68975
-1.37005
-0.517233
0.022314
0.352312
0.541352
0.629817
0.681456
0.658223
0.627762
0.584669
0.533194
0.479332
0.425622
0.37335
0.321765
0.275672
0.211701
0.277183
18.9221
17.9276
16.0485
12.0013
5.18555
-3.14546
-8.88193
-9.84079
-7.84528
-5.49725
-3.56172
-2.11387
-1.09977
-0.420492
0.0203195
0.295595
0.456886
0.536885
0.561532
0.566762
0.543548
0.508067
0.465802
0.420574
0.374675
0.329314
0.283757
0.241582
0.183103
0.224295
13.6687
12.7522
10.9542
7.2819
2.38633
-2.77193
-6.00259
-6.62823
-5.52989
-4.07309
-2.75219
-1.69749
-0.921943
-0.382458
-0.0217449
0.210305
0.350989
0.426773
0.458982
0.464315
0.448848
0.422918
0.390625
0.354965
0.317914
0.280499
0.242039
0.204971
0.153399
0.172335
10.0578
9.15022
7.40764
4.23484
0.688453
-2.56936
-4.44105
-4.78046
-4.08719
-3.11613
-2.18725
-1.4124
-0.819681
-0.39118
-0.0945858
0.103193
0.228559
0.30154
0.3385
0.350403
0.345407
0.330336
0.308865
0.283622
0.256286
0.227729
0.197402
0.166697
0.123649
0.123716
7.81609
6.85376
5.09884
2.40273
-0.202268
-2.30982
-3.43508
-3.60713
-3.14238
-2.47414
-1.81064
-1.23701
-0.781808
-0.439972
-0.193599
-0.022285
0.0923925
0.165005
0.207523
0.228685
0.234949
0.231463
0.221494
0.207319
0.190391
0.171493
0.150294
0.127259
0.0945541
0.0803181
6.64111
5.58672
3.80064
1.53986
-0.417862
-1.86391
-2.61423
-2.74326
-2.45854
-2.01517
-1.55166
-1.1338
-0.787912
-0.516297
-0.311266
-0.161186
-0.0541146
0.0199187
0.0692809
0.100484
0.11842
0.127028
0.129039
0.126405
0.120424
0.111864
0.100728
0.0866736
0.066321
0.0433563
6.2277
5.09004
3.34408
1.48792
-0.0404049
-1.15407
-1.78154
-1.9803
-1.88156
-1.63955
-1.35049
-1.0679
-0.817545
-0.608363
-0.440427
-0.309055
-0.208108
-0.131825
-0.0750386
-0.033435
-0.003572
0.0174189
0.0316863
0.0408923
0.0462283
0.0485192
0.048253
0.0444108
0.0385362
0.0132797
6.2739
5.13522
3.58306
2.09046
0.817069
-0.185126
-0.854771
-1.2094
-1.32073
-1.28228
-1.16409
-1.01216
-0.854389
-0.706271
-0.5748
-0.461917
-0.367043
-0.288556
-0.22438
-0.172382
-0.130599
-0.0971882
-0.0706037
-0.0494686
-0.0326672
-0.0192679
-0.00810409
-0.000728543
0.00989559
-0.0104456
6.46018
5.50502
4.30412
3.10886
1.96908
0.95832
0.162042
-0.394359
-0.733489
-0.906837
-0.96453
-0.947176
-0.885566
-0.801293
-0.708486
-0.615814
-0.528273
-0.448501
-0.377596
-0.315688
-0.262359
-0.21682
-0.178151
-0.145303
-0.117209
-0.0928541
-0.0701883
-0.0510401
-0.0226963
-0.0302942
6.46758
5.92639
5.11966
4.16166
3.12074
2.09107
1.17187
0.425776
-0.12807
-0.505325
-0.736433
-0.855021
-0.892629
-0.875797
-0.825125
-0.755697
-0.67802
-0.599077
-0.523231
-0.452968
-0.389476
-0.333071
-0.28347
-0.240048
-0.201756
-0.167602
-0.13472
-0.104283
-0.0596473
-0.0492866
6.39262
6.16029
5.64069
4.87331
3.94568
2.95039
1.98424
1.12926
0.43256
-0.0945733
-0.464159
-0.699933
-0.829943
-0.88161
-0.878736
-0.840398
-0.781047
-0.711118
-0.637785
-0.565691
-0.497629
-0.435076
-0.378521
-0.3279
-0.282415
-0.241228
-0.201203
-0.162798
-0.10582
-0.0768396
52.6221
51.4701
59.7956
85.9352
69.7166
11.0654
-64.611
-61.6764
-35.002
-19.8111
-11.315
-6.43655
-3.54117
-1.76083
-0.646603
0.0441244
0.455267
0.666366
0.740304
0.827466
0.774307
0.728471
0.664084
0.594761
0.52676
0.461999
0.398642
0.350038
0.258505
0.429575
48.6073
47.5064
52.2777
74.5873
59.7411
10.0958
-56.5975
-54.8582
-32.7362
-18.8537
-10.8364
-6.16319
-3.37679
-1.66505
-0.595592
0.0669683
0.46162
0.666408
0.733191
0.816321
0.764558
0.717167
0.653554
0.58517
0.518098
0.454131
0.392163
0.34142
0.265037
0.391005
42.2787
40.9441
42.0033
43.852
46.8961
-0.0874469
-40.2401
-42.5495
-27.8712
-16.7177
-9.76898
-5.57394
-3.03571
-1.47254
-0.497683
0.105457
0.464838
0.65117
0.702377
0.782053
0.736966
0.690025
0.628552
0.563045
0.49865
0.437019
0.377285
0.326888
0.255149
0.363263
34.7598
33.3736
31.9399
30.4143
15.8317
-1.80806
-25.5294
-29.7796
-21.7839
-13.8771
-8.35518
-4.82418
-2.62391
-1.2526
-0.394746
0.136577
0.454037
0.621034
0.655185
0.726691
0.693008
0.648898
0.590958
0.529942
0.469706
0.411698
0.355176
0.306257
0.237963
0.328289
27.335
26.17
24.2716
20.6611
10.2385
-2.32961
-15.301
-19.1457
-15.5266
-10.6653
-6.72834
-3.98742
-2.19497
-1.04918
-0.323635
0.12905
0.40163
0.549681
0.574381
0.655239
0.632883
0.594175
0.541599
0.486626
0.431981
0.378876
0.326631
0.28019
0.215956
0.286138
20.7496
19.7937
17.9707
14.0526
6.46806
-3.7501
-9.9217
-10.9512
-8.76669
-6.07736
-3.87273
-2.26858
-1.16883
-0.442279
0.0242534
0.313091
0.48087
0.563413
0.611022
0.588057
0.563784
0.52677
0.481746
0.43433
0.386553
0.339542
0.292635
0.24968
0.190439
0.239659
15.396
14.5903
12.9377
9.25775
3.69254
-2.68075
-6.76493
-7.59692
-6.31856
-4.58924
-3.05558
-1.86104
-0.998911
-0.407576
-0.0169948
0.231378
0.380206
0.45757
0.48556
0.493851
0.477238
0.448598
0.413148
0.374529
0.334747
0.294882
0.254319
0.215878
0.162755
0.191559
11.3799
10.6618
9.16012
5.92006
1.79777
-2.3247
-4.84843
-5.40063
-4.64242
-3.51583
-2.43822
-1.54984
-0.879699
-0.402182
-0.0767687
0.136941
0.270063
0.3452
0.380686
0.390847
0.382329
0.363406
0.337959
0.308865
0.277924
0.246075
0.212785
0.179905
0.134171
0.144385
8.61293
7.90868
6.46857
3.68923
0.627291
-2.09738
-3.67587
-4.01811
-3.52851
-2.76161
-1.99187
-1.33051
-0.811846
-0.428455
-0.157324
0.0274986
0.148157
0.221722
0.262283
0.279473
0.280987
0.272563
0.257617
0.238635
0.217179
0.19407
0.168913
0.142669
0.105736
0.100379
6.91382
6.15946
4.69534
2.32847
0.0271412
-1.8201
-2.8444
-3.0673
-2.74944
-2.22473
-1.67536
-1.18519
-0.786072
-0.479495
-0.253458
-0.0925946
0.01828
0.0914451
0.137148
0.163006
0.174903
0.177308
0.173206
0.164722
0.153219
0.139449
0.123226
0.104708
0.0781411
0.0612952
6.06108
5.21761
3.7025
1.70348
-0.0611354
-1.38524
-2.1206
-2.31832
-2.14837
-1.81447
-1.43955
-1.08786
-0.78798
-0.546414
-0.35965
-0.219585
-0.116845
-0.0433113
0.00800685
0.0426663
0.0649804
0.0783738
0.0852937
0.0875356
0.0863112
0.0823568
0.0757996
0.0660882
0.0516061
0.0282793
5.81594
4.88631
3.38047
1.72272
0.322276
-0.729492
-1.36783
-1.62909
-1.61826
-1.46083
-1.24237
-1.01427
-0.803504
-0.621563
-0.471347
-0.350695
-0.255456
-0.181362
-0.124373
-0.0809874
-0.0483167
-0.0239306
-0.00595614
0.00709866
0.0163302
0.0225173
0.0262379
0.0263347
0.0257504
0.00175984
5.93085
4.98392
3.62617
2.27888
1.09988
0.14408
-0.529066
-0.923849
-1.09452
-1.11705
-1.05294
-0.945179
-0.821505
-0.698429
-0.584569
-0.483508
-0.396071
-0.32177
-0.259422
-0.207578
-0.164771
-0.129553
-0.100645
-0.0768537
-0.0571759
-0.0407489
-0.0263648
-0.0156661
-0.000653451
-0.0187628
6.13517
5.33185
4.26926
3.18067
2.12187
1.1635
0.38598
-0.180222
-0.547784
-0.757152
-0.85122
-0.866805
-0.833007
-0.771032
-0.695391
-0.615467
-0.537034
-0.463456
-0.396469
-0.336736
-0.284266
-0.238611
-0.199113
-0.164913
-0.135075
-0.10868
-0.0837012
-0.0620196
-0.0304898
-0.0356124
6.15992
5.70334
4.98185
4.10278
3.13466
2.16553
1.28715
0.560462
0.00789555
-0.380179
-0.628726
-0.767351
-0.82486
-0.826164
-0.791089
-0.73449
-0.666976
-0.595796
-0.525648
-0.459366
-0.398462
-0.343535
-0.294538
-0.251037
-0.212127
-0.176928
-0.142669
-0.110579
-0.0640815
-0.0516365
6.10369
5.90477
5.43321
4.72245
3.85605
2.92083
2.00597
1.18814
0.513284
-0.00511367
-0.375658
-0.61875
-0.759585
-0.8234
-0.832524
-0.805161
-0.75532
-0.693284
-0.626259
-0.559025
-0.494552
-0.434512
-0.379574
-0.32983
-0.28462
-0.243206
-0.202587
-0.163291
-0.105689
-0.0755957
38.3312
37.4239
37.2279
35.0713
20.6131
-2.338
-28.3492
-27.0351
-18.226
-10.9789
-6.46897
-3.64418
-1.86033
-0.738158
-0.0388857
0.3836
0.622724
0.729986
0.787535
0.764716
0.724111
0.673452
0.612937
0.549541
0.486926
0.42686
0.367549
0.319854
0.234025
0.366142
35.6061
34.6077
33.7107
29.8801
17.1118
-1.73585
-25.039
-24.1911
-16.6958
-10.246
-6.06889
-3.41803
-1.73405
-0.67197
-0.00984488
0.390239
0.616288
0.718554
0.776849
0.750799
0.710172
0.660036
0.600709
0.538592
0.477244
0.418247
0.360472
0.311301
0.238603
0.333085
31.2369
30.1069
28.8249
25.626
12.59
-5.75963
-19.1462
-20.0625
-14.3035
-9.02806
-5.4333
-3.07734
-1.55665
-0.589764
0.01556
0.382494
0.590447
0.685134
0.739494
0.714321
0.677427
0.629846
0.573601
0.514765
0.456464
0.40014
0.344901
0.296642
0.22862
0.30848
25.9871
24.8586
23.0339
19.2358
9.46529
-4.61548
-14.1623
-15.2166
-11.4931
-7.59138
-4.68626
-2.6903
-1.36952
-0.516374
0.0231975
0.353109
0.542039
0.630415
0.68197
0.65871
0.628189
0.585059
0.533556
0.479666
0.425927
0.373623
0.322
0.275864
0.211835
0.277294
20.7473
19.7906
17.9662
14.0458
6.45819
-3.77278
-9.9435
-10.9679
-8.77599
-6.08206
-3.87503
-2.2695
-1.16905
-0.44218
0.0244743
0.31334
0.481109
0.563638
0.611221
0.588323
0.564027
0.526992
0.481951
0.434519
0.386725
0.339695
0.292767
0.249788
0.190514
0.239721
16.0488
15.2834
13.6793
9.99747
4.10509
-2.90937
-7.04009
-7.85472
-6.50976
-4.68045
-3.07618
-1.84705
-0.970726
-0.374914
0.015456
0.261304
0.406552
0.47997
0.51184
0.505402
0.4873
0.457428
0.420582
0.380916
0.34024
0.299586
0.258358
0.219513
0.165953
0.198315
12.1884
11.5726
10.2059
6.95081
2.47726
-2.24144
-5.10589
-5.75931
-4.94549
-3.71375
-2.54876
-1.60163
-0.894781
-0.395584
-0.0585296
0.160616
0.295443
0.369521
0.403447
0.40964
0.39971
0.378991
0.351571
0.320666
0.288046
0.254675
0.220048
0.186269
0.139471
0.155522
9.27264
8.74347
7.53821
4.74225
1.34667
-1.88146
-3.82347
-4.30686
-3.80573
-2.96777
-2.12264
-1.40068
-0.839054
-0.427595
-0.139997
0.0537427
0.178459
0.252729
0.292208
0.30696
0.305955
0.294873
0.277208
0.25561
0.231687
0.206299
0.179049
0.151236
0.112309
0.11366
7.26837
6.75576
5.60402
3.22073
0.632113
-1.6128
-2.93312
-3.28336
-2.96979
-2.39538
-1.78502
-1.2415
-0.801962
-0.46825
-0.225717
-0.0558328
0.0589747
0.132602
0.176739
0.199588
0.208049
0.20688
0.19918
0.187216
0.172412
0.155535
0.136339
0.115366
0.0854944
0.0747754
6.06334
5.50648
4.32098
2.28587
0.291243
-1.30978
-2.23944
-2.51373
-2.33397
-1.95224
-1.52189
-1.12129
-0.784271
-0.517749
-0.31562
-0.167592
-0.0620356
0.0108307
0.0593697
0.0899577
0.107703
0.1164
0.118688
0.116486
0.111044
0.103069
0.0925212
0.0792493
0.0597121
0.0404847
5.50206
4.86174
3.612
1.87968
0.31592
-0.884971
-1.60198
-1.86641
-1.80882
-1.58716
-1.30659
-1.0273
-0.779213
-0.572424
-0.407545
-0.280061
-0.183394
-0.111455
-0.0587805
-0.020902
0.00579944
0.0241803
0.036349
0.0438971
0.0479259
0.0491237
0.0477409
0.0430038
0.0351929
0.0118516
5.40425
4.67785
3.41284
1.96067
0.696932
-0.286628
-0.929704
-1.2502
-1.32632
-1.25626
-1.11332
-0.94508
-0.778958
-0.628556
-0.499473
-0.392096
-0.304403
-0.233754
-0.177357
-0.132632
-0.0973362
-0.0695365
-0.0476879
-0.0305093
-0.0170252
-0.00652188
0.00166651
0.00622058
0.0115956
-0.0107185
5.57326
4.81602
3.65711
2.4631
1.38718
0.485419
-0.184493
-0.615298
-0.843883
-0.928933
-0.92225
-0.862724
-0.77719
-0.68279
-0.589582
-0.502756
-0.4246
-0.355834
-0.296254
-0.245173
-0.201699
-0.164824
-0.133588
-0.107017
-0.0842441
-0.0644987
-0.0465358
-0.0321196
-0.0122183
-0.0276852
5.78662
5.13492
4.21575
3.24118
2.27137
1.37309
0.621166
0.0500515
-0.343413
-0.588661
-0.720687
-0.771744
-0.768639
-0.731797
-0.675883
-0.610883
-0.543327
-0.477326
-0.415299
-0.358489
-0.307382
-0.261918
-0.221735
-0.186202
-0.154534
-0.125934
-0.0984075
-0.0739255
-0.0388998
-0.0412054
5.82518
5.45346
4.82108
4.02696
3.13862
2.23717
1.40623
0.704238
0.156473
-0.240798
-0.50675
-0.666477
-0.745594
-0.767016
-0.749531
-0.707607
-0.651868
-0.589794
-0.526424
-0.464956
-0.407252
-0.354228
-0.306101
-0.262655
-0.223154
-0.18685
-0.15109
-0.117186
-0.0686983
-0.0539479
5.78682
5.62167
5.20084
4.55147
3.75228
2.88351
2.02608
1.2507
0.601663
0.0944788
-0.275946
-0.526379
-0.678828
-0.756032
-0.778598
-0.763674
-0.724709
-0.671772
-0.61207
-0.550516
-0.49027
-0.433211
-0.380214
-0.331543
-0.286698
-0.245061
-0.203795
-0.163508
-0.105296
-0.073981
26.9554
25.8045
23.9796
20.1376
11.5195
-5.22003
-14.1058
-16.312
-11.6216
-7.57702
-4.73404
-2.73685
-1.39895
-0.529859
0.0231451
0.362605
0.55798
0.651886
0.679143
0.683169
0.648434
0.602827
0.550157
0.494559
0.439005
0.385092
0.33112
0.285572
0.206858
0.300398
25.2004
24.0414
22.0319
17.7604
9.58492
-4.99515
-12.7561
-14.7427
-10.8045
-7.11967
-4.45939
-2.58047
-1.31305
-0.486623
0.0397507
0.362845
0.548412
0.637073
0.661759
0.665152
0.632314
0.587846
0.536634
0.482592
0.428536
0.375903
0.323575
0.277196
0.209488
0.273044
22.3763
21.2685
19.3315
14.9967
7.16449
-3.72975
-11.1688
-12.3826
-9.4315
-6.3867
-4.05185
-2.36399
-1.20869
-0.447851
0.0397362
0.34061
0.514399
0.598232
0.621966
0.625589
0.596631
0.5557
0.508069
0.45758
0.406813
0.357096
0.30754
0.262591
0.199531
0.251713
18.915
17.9187
16.0365
11.9844
5.16308
-3.19394
-8.92623
-9.87444
-7.8627
-5.50494
-3.56444
-2.114
-1.0988
-0.419125
0.0217051
0.29687
0.458019
0.537891
0.562433
0.567591
0.5443
0.508757
0.466437
0.421157
0.375205
0.329785
0.284161
0.241913
0.183334
0.224483
15.391
14.5845
12.9301
9.24768
3.67951
-2.70419
-6.78647
-7.61367
-6.32801
-4.59378
-3.05735
-1.86123
-0.998373
-0.406755
-0.0161141
0.232221
0.380977
0.45827
0.486196
0.494446
0.477784
0.449099
0.41361
0.374953
0.335131
0.295224
0.254613
0.216117
0.162922
0.191695
12.1859
11.5698
10.2026
6.94655
2.47203
-2.24957
-5.11346
-5.76532
-4.94909
-3.71553
-2.54943
-1.60166
-0.894495
-0.395171
-0.0580863
0.161046
0.295844
0.369889
0.403785
0.409955
0.4
0.379259
0.351817
0.320892
0.288251
0.254857
0.220204
0.186397
0.13956
0.155595
9.52699
9.0592
7.93942
5.14494
1.62822
-1.79692
-3.87698
-4.41689
-3.91165
-3.04569
-2.17206
-1.42778
-0.850517
-0.428826
-0.135238
0.0617171
0.187904
0.26239
0.30153
0.315232
0.313792
0.301985
0.283477
0.26106
0.236356
0.210243
0.182334
0.154047
0.114532
0.11836
7.51125
7.13144
6.16566
3.79533
1.04465
-1.44816
-2.96015
-3.39941
-3.09667
-2.49727
-1.85359
-1.28033
-0.817989
-0.468608
-0.216457
-0.0411567
0.0762882
0.150606
0.194306
0.21593
0.223053
0.220337
0.211019
0.197474
0.181157
0.162857
0.142318
0.120294
0.0890435
0.0820618
6.13729
5.78056
4.86386
2.84826
0.690889
-1.14262
-2.25312
-2.61536
-2.45076
-2.04813
-1.58581
-1.15479
-0.793362
-0.509911
-0.297084
-0.143052
-0.0348099
0.0384566
0.0859903
0.114679
0.130183
0.136477
0.13633
0.131756
0.124041
0.113896
0.10122
0.0861362
0.0640922
0.0485438
5.33997
4.94894
3.99929
2.27238
0.565937
-0.812576
-1.65825
-1.97892
-1.92202
-1.67384
-1.35911
-1.04809
-0.775195
-0.551261
-0.375506
-0.242296
-0.143577
-0.0720829
-0.0214033
0.01356
0.0369607
0.0519247
0.060718
0.0650165
0.065941
0.0641442
0.0597232
0.0522089
0.0403539
0.0192704
5.01408
4.54949
3.53443
2.05345
0.68419
-0.397447
-1.09245
-1.4151
-1.45981
-1.3453
-1.15833
-0.953089
-0.75959
-0.590633
-0.450439
-0.337833
-0.249033
-0.180022
-0.126932
-0.086435
-0.0557229
-0.0325375
-0.0151459
-0.00219664
0.00727852
0.0139039
0.0180458
0.0186893
0.0180732
-0.00478307
5.02763
4.48137
3.43728
2.18284
1.0555
0.143573
-0.496421
-0.867236
-1.02262
-1.03624
-0.968435
-0.861681
-0.74273
-0.626661
-0.521303
-0.429405
-0.351041
-0.285214
-0.230428
-0.185079
-0.147638
-0.116712
-0.091118
-0.0698198
-0.0519859
-0.0369861
-0.0240766
-0.0147603
-0.0030453
-0.0232373
5.22835
4.64237
3.67094
2.62749
1.65689
0.814382
0.155474
-0.303421
-0.583604
-0.727807
-0.777763
-0.767393
-0.721812
-0.658255
-0.587835
-0.517155
-0.44989
-0.387956
-0.332149
-0.282577
-0.238967
-0.200789
-0.167427
-0.138158
-0.112272
-0.0891103
-0.0674054
-0.0490606
-0.0240432
-0.0365095
5.4384