/*--------------------------------*- C++ -*----------------------------------*\
  =========                 |
  \\      /  F ield         | OpenFOAM: The Open Source CFD Toolbox
   \\    /   O peration     | Website:  https://openfoam.org
    \\  /    A nd           | Version:  7
     \\/     M anipulation  |
\*---------------------------------------------------------------------------*/
FoamFile
{
    version     2.0;
    format      ascii;
    class       surfaceScalarField;
    location    "800";
    object      phi;
}
// * * * * * * * * * * * * * * * * * * * * * * * * * * * * * * * * * * * * * //

dimensions      [0 3 -1 0 0 0 0];

internalField   nonuniform List<scalar> 
81175
(
525.054
8.76052
8.72126
113.18
32.2458
32.1276
115.168
115.324
117.009
93.5163
9.84382
9.81952
-14.6345
3.03793
3.45972
1.99902
2.18304
1.71138
2.24336
2.29722
-0.639556
-0.757062
-0.900597
-5.83312
-1.10829
-1.1762
8.11761
-14.0438
15.6829
-0.809843
-0.829279
-19.7115
20.7999
-0.541202
-0.547101
-23.4682
24.193
-0.361316
-0.363462
-25.9898
26.4848
-0.247015
-0.247984
-27.7303
28.0789
-0.174069
-0.174608
-28.9694
29.2225
-0.126375
-0.126728
-29.8777
30.0666
-0.0942965
-0.0945574
-30.5645
123.413
-0.55336
-0.554972
-30.5763
-30.5763
-30.588
504.571
-3.16287
-3.17315
-124.419
-124.56
-124.559
-124.697
509.721
-2.57087
-2.57993
513.933
-2.10155
-2.10966
517.415
-1.73768
-1.74502
520.327
-1.45246
-1.45915
522.785
-1.22596
-1.23212
524.878
-1.04352
-1.0492
526.672
-0.894568
-0.899819
528.209
-0.765793
-0.770658
529.546
-0.666493
-0.671008
-0.523213
-0.527455
529.709
14.4434
7.59941
118.567
50.6907
27.1086
122.254
120.051
123.284
-17.9314
104.563
23.6196
8.31538
-11.0158
-19.6579
13.0944
2.57159
3.89411
3.58307
3.63156
3.89909
-2.3782
3.78702
-5.49299
-1.02712
5.11128
-12.0627
4.19641
-1.02997
-4.94938
13.8457
2.85039
-18.0891
19.2281
-3.29891
-0.690479
1.91539
-22.0573
22.8409
-2.23523
-0.463737
1.30764
-24.8211
25.3769
-1.54557
-0.317863
0.91337
-26.7951
27.1969
-1.09207
-0.223105
0.654592
-28.2313
28.5271
-0.789836
-0.160595
0.481257
-29.2956
29.5176
-0.584726
-0.118493
0.362383
-30.0996
30.2695
-0.442698
-0.0895062
-30.7294
1.0761
124.052
-1.5536
-0.526585
-30.7837
-30.7403
-30.7943
506.724
-5.85271
-2.99897
-125.004
-125.388
-125.134
-125.51
511.402
-4.79559
-2.45336
515.273
-3.95498
-2.01718
518.503
-3.29168
-1.67621
521.224
-2.76648
-1.40708
523.536
-2.34616
-1.19209
525.516
-2.00527
-1.01805
527.221
-1.7243
-0.875302
528.691
-1.48392
-0.751691
529.962
-1.28027
-0.656847
-1.0526
-0.514089
535.602
16.5544
6.02753
126.056
54.5314
20.0228
129.141
126.848
129.694
-26.3317
119.549
26.9678
5.87066
-14.8847
-27.0658
25.359
14.7919
1.79969
-0.186498
0.876826
-0.746909
0.0578446
-19.5464
8.91154
-8.70827
-1.01883
20.362
5.70733
-22.1229
-0.649091
22.6413
-5.57658
3.87284
-24.0897
24.5359
-3.8673
-0.451779
2.74966
-25.7676
26.1427
-2.79961
-0.325119
1.99425
-27.1667
27.4758
-2.06548
-0.237836
1.46833
-28.3133
28.5644
-1.54308
-0.176329
1.09769
-29.2416
29.4439
-1.16742
-0.132584
0.833863
-29.9887
30.1514
-0.895327
-0.101199
0.644021
-30.5899
30.7213
-0.696924
-0.0784773
-31.0922
1.95446
125.352
-2.29046
-0.469528
-31.1722
-31.1012
-31.1808
510.543
-7.78286
-2.69769
-126.161
-126.691
-126.272
-126.791
514.436
-6.45811
-2.2307
517.723
-5.38944
-1.85238
520.514
-4.53035
-1.55223
522.899
-3.83924
-1.31226
524.95
-3.27914
-1.11857
526.726
-2.82008
-0.96041
528.269
-2.43792
-0.829709
529.611
-2.10987
-0.715999
530.784
-1.82494
-0.628378
-1.52445
-0.494494
540.839
16.2543
4.58656
530.973
50.1713
14.2263
129.682
97.4214
28.5549
-26.4715
-35.9781
-25.599
-34.5275
133.614
130.444
133.834
-53.7852
131.703
44.3985
7.36516
-23.408
-34.0449
36.1841
19.4485
1.82056
4.65861
-4.72372
0.0653309
12.0775
-29.0631
28.4829
-10.5165
-0.980852
7.00738
-27.831
-0.530195
27.7579
-6.40405
4.80239
-27.7927
27.8631
-4.50698
-0.365865
3.56043
-28.1735
28.2989
-3.41062
-0.275269
2.72602
-28.7053
28.8466
-2.65438
-0.212909
2.11197
-29.2761
29.4176
-2.08724
-0.166196
1.64591
-29.8322
29.9647
-1.64813
-0.130324
1.2902
-30.3445
30.4637
-1.30663
-0.102704
1.01874
-30.8002
30.9045
-1.04159
-0.0814706
0.812012
-31.1966
31.2868
-0.836944
-0.0651798
-31.5565
2.53613
127.002
-2.7222
-0.399513
-31.6446
-31.5636
-31.6513
515.328
-8.91218
-2.33294
-127.634
-128.215
-127.723
-128.294
518.328
-7.50256
-1.95501
520.928
-6.34597
-1.64416
523.188
-5.39721
-1.39291
525.157
-4.61979
-1.1886
526.88
-3.98012
-1.02146
528.392
-3.44921
-0.883429
529.725
-3.00236
-0.768297
530.899
-2.61611
-0.667427
531.939
-2.27609
-0.589271
-1.92241
-0.468497
544.531
14.5775
3.37013
541.905
42.9357
9.8616
136.192
75.2142
17.6282
136.955
136.318
137.02
-36.3522
138.395
30.3606
3.78804
-49.1291
149.499
37.6518
4.86186
-142.883
-10.893
-39.625
40.9097
0.582555
9.02587
-0.379552
-43.0194
42.4286
-0.0814186
1.05171
6.91277
-37.9077
141.262
-16.0711
-2.41542
7.20589
6.77254
7.1064
-37.9742
-37.4488
-37.442
6.37474
-134.034
129.482
-17.6595
-2.40486
6.29695
6.00839
5.93666
4.71257
-126.669
125.088
-14.762
-1.88958
4.44331
4.67049
4.40621
3.62257
-124.15
123.674
-12.1306
-1.50292
3.45593
3.59746
3.43355
2.90221
-123.462
123.446
-10.0956
-1.22644
2.78293
2.88535
2.76765
2.36307
-123.574
123.8
-8.46006
-1.01317
2.27208
2.35093
2.26094
1.93415
-124.11
124.469
-7.0919
-0.839589
1.86053
1.92539
1.85244
1.58297
-124.876
125.301
-5.92966
-0.6951
1.52315
1.57668
1.5173
1.29518
-125.75
126.196
-4.94577
-0.574818
1.2468
1.29068
1.24258
1.06087
-126.649
127.086
-4.1205
-0.475476
1.02187
1.05765
1.01882
0.871444
-127.521
127.933
-3.43661
-0.394387
0.840733
0.869107
0.838484
2.82602
-128.341
128.728
-2.88314
-0.32944
520.453
-9.34974
-1.95917
-129.196
-129.766
-129.265
-129.829
522.606
-7.99011
-1.6657
524.531
-6.85019
-1.42073
526.251
-5.89884
-1.21857
527.787
-5.10392
-1.05097
529.157
-4.43911
-0.911759
530.383
-3.87992
-0.795343
531.482
-3.40396
-0.697265
532.466
-2.98929
-0.610671
533.354
-2.62072
-0.54327
-2.23601
-0.437579
546.761
12.2667
2.40265
547.612
35.2626
6.82188
553.614
57.9405
11.2722
568.579
76.1796
15.018
-25.518
-28.2815
-24.8425
-27.5209
148.054
78.4349
15.6115
-29.7811
-27.8387
-28.8908
-27.0473
146.177
147.83
146.028
-22.463
150.387
18.3296
1.80042
-5.00017
-150.838
149.204
6.1339
0.500488
556.478
-11.3281
-3.73412
8.95718
11.0845
8.36648
10.5076
-145.873
-144.466
-145.67
-144.323
538.432
-24.2144
-5.80551
12.4559
12.028
11.9536
11.6289
527.74
-28.055
-5.98382
11.7147
10.9514
11.3793
10.6855
521.903
-27.8282
-5.57786
10.2523
9.58021
10.0202
9.39007
518.963
-26.0131
-5.01871
8.85291
8.29082
8.68186
8.1463
517.773
-23.6419
-4.4453
7.61844
7.14055
7.48902
7.02856
517.718
-21.1403
-3.89909
6.52464
6.11555
6.4253
6.02916
518.391
-18.6813
-3.39363
5.56208
5.20986
5.48624
5.14368
519.523
-16.3679
-2.93579
4.72033
4.41984
4.66275
4.36937
520.916
-14.2508
-2.52915
3.99374
3.74075
3.95014
3.70227
522.431
-12.3594
-2.17513
3.37497
3.16562
3.34192
3.13641
523.991
-10.6947
-1.86967
2.85625
2.67525
2.82946
2.64328
525.497
-9.24597
-1.60965
526.919
-8.02234
-1.38985
528.246
-6.97382
-1.20318
529.473
-6.07992
-1.04528
530.599
-5.31822
-0.911718
531.629
-4.67084
-0.799026
532.572
-4.11908
-0.703581
533.435
-3.64448
-0.622402
534.224
-3.228
-0.550231
534.952
-2.85518
-0.493896
-2.46132
-0.404012
547.908
9.85499
1.67462
550.326
28.1602
4.68381
555.895
44.9454
7.42596
565.558
57.0812
9.43565
576.147
58.2577
9.58812
579.503
43.9831
6.80391
-15.4452
-11.834
-15.1761
-11.6881
573.026
22.0031
2.94208
-6.43537
-2.74732
-6.42624
-2.85953
560.465
1.79772
-0.563922
548.982
-10.3598
-2.37172
540.47
-16.4331
-3.1099
534.769
-18.8353
-3.29169
531.155
-19.1978
-3.20172
529.013
-18.5076
-2.99216
527.887
-17.2821
-2.73263
527.474
-15.809
-2.45891
527.556
-14.2612
-2.18909
527.975
-12.7354
-1.93411
528.611
-11.2949
-1.70039
529.374
-9.96751
-1.49006
530.206
-8.77344
-1.30489
531.05
-7.7224
-1.1442
531.882
-6.80129
-1.0044
532.686
-5.99952
-0.88361
533.45
-5.3036
-0.779537
534.173
-4.70309
-0.690379
534.853
-4.18507
-0.613959
535.492
-3.73547
-0.548428
536.093
-3.33887
-0.489888
536.665
-2.98251
-0.444178
-2.59921
-0.369904
548.347
7.63462
1.15165
551.235
22.058
3.21441
556.19
34.9846
5.00554
563.112
43.9486
6.21083
569.853
45.2073
6.30874
572.372
36.5962
4.86765
569.214
22.4423
2.71957
562.178
8.202
0.631176
554.633
-2.08655
-0.727805
548.206
-8.50598
-1.5007
543.286
-12.0429
-1.87252
539.744
-13.6564
-1.99936
537.293
-14.0702
-1.98655
535.667
-13.7582
-1.89699
534.664
-13.0396
-1.76736
534.124
-12.1009
-1.61936
533.921
-11.0668
-1.46657
533.962
-10.0183
-1.31751
534.174
-9.00263
-1.17679
534.502
-8.05268
-1.0483
534.898
-7.18575
-0.932856
535.334
-6.40679
-0.829981
535.788
-5.71447
-0.73925
536.247
-5.10277
-0.65964
536.701
-4.56746
-0.590444
537.148
-4.10076
-0.530492
537.584
-3.693
-0.478763
538.01
-3.33267
-0.432498
538.434
-3.0095
-0.396482
-2.65353
-0.336961
548.395
5.72762
0.786124
551.236
16.9993
2.2174
555.515
27.2568
3.44908
560.828
34.3768
4.25875
565.721
35.9396
4.37468
567.95
30.7655
3.60189
566.662
21.3701
2.35983
562.675
11.1346
1.05449
557.76
2.76101
0.0673828
553.067
-3.2148
-0.597815
549.087
-7.06442
-0.998728
545.913
-9.27317
-1.2095
543.497
-10.3587
-1.29516
541.705
-10.6636
-1.30206
540.414
-10.4884
-1.26033
539.518
-10.0151
-1.19039
538.931
-9.37346
-1.10566
538.579
-8.65152
-1.01505
538.407
-7.90632
-0.924169
538.368
-7.17734
-0.837052
538.426
-6.48758
-0.75581
538.552
-5.85117
-0.681484
538.725
-5.27349
-0.614469
538.931
-4.75421
-0.55457
539.16
-4.29382
-0.501776
539.403
-3.88891
-0.455603
539.66
-3.53388
-0.41561
539.928
-3.22116
-0.379994
540.215
-2.94406
-0.352474
-2.62948
-0.30645
548.245
4.14599
0.536924
550.814
12.8826
1.54768
554.482
21.1537
2.43535
558.796
27.0327
3.03021
562.739
28.8245
3.17168
564.937
25.8072
2.76083
564.801
19.49
2.01555
562.694
12.0706
1.17103
559.59
5.40835
0.456957
556.262
0.196298
-0.0831581
553.151
-3.50017
-0.453429
550.482
-5.9187
-0.68544
548.259
-7.31988
-0.816119
546.48
-8.009
-0.875587
545.081
-8.20178
-0.887038
544
-8.067
-0.867275
543.181
-7.72655
-0.828164
542.575
-7.26695
-0.778024
542.139
-6.74773
-0.722536
541.838
-6.21093
-0.66579
541.643
-5.68232
-0.610321
541.53
-5.18052
-0.557846
541.481
-4.71504
-0.50929
541.481
-4.28946
-0.464999
541.521
-3.90762
-0.425397
541.592
-3.56951
-0.390471
541.691
-3.27323
-0.360176
541.819
-3.01503
-0.333525
541.981
-2.79335
-0.313196
-2.53212
-0.279228
547.991
2.88621
0.369938
550.206
9.56448
1.10245
553.359
16.2286
1.77265
557.035
21.116
2.24032
560.492
22.9696
2.39806
562.787
21.3226
2.18958
563.433
17.1124
1.73152
562.58
11.7545
1.16932
560.752
6.58844
0.648082
558.487
2.24358
0.217618
556.159
-1.06639
-0.10584
553.963
-3.39019
-0.332407
552.02
-4.89763
-0.479778
550.352
-5.77329
-0.566944
548.949
-6.18871
-0.610427
547.788
-6.28285
-0.623155
546.838
-6.16208
-0.614965
546.07
-5.90522
-0.593174
545.454
-5.56892
-0.563094
544.966
-5.1942
-0.52869
544.584
-4.80714
-0.492577
544.288
-4.4278
-0.456762
544.063
-4.0677
-0.422485
543.896
-3.73278
-0.39043
543.779
-3.42893
-0.361294
543.704
-3.15865
-0.33539
543.667
-2.92327
-0.312929
543.668
-2.72252
-0.293636
543.716
-2.56219
-0.279184
-2.36498
-0.255796
547.703
1.90391
0.258675
549.56
6.89771
0.81016
552.301
12.1471
1.34058
555.575
16.1117
1.7301
558.789
17.8597
1.896
561.215
17.0943
1.80285
562.449
14.3605
1.51754
562.479
10.5908
1.13348
561.608
6.71309
0.746306
560.177
3.27179
0.402743
558.491
0.495532
0.124097
556.761
-1.57289
-0.087141
555.107
-3.00551
-0.23807
553.593
-3.92011
-0.339609
552.246
-4.43858
-0.402757
551.068
-4.66809
-0.437061
550.052
-4.69539
-0.45038
549.183
-4.58738
-0.448927
548.446
-4.39397
-0.43748
547.823
-4.15214
-0.419748
547.301
-3.88621
-0.398318
546.864
-3.61542
-0.375298
546.5
-3.35161
-0.352103
546.198
-3.10172
-0.329636
545.951
-2.87256
-0.308766
545.75
-2.66826
-0.290037
545.594
-2.49277
-0.273799
545.48
-2.34867
-0.260422
545.42
-2.25175
-0.250578
-2.12844
-0.23637
547.405
1.15466
0.18291
548.948
4.7347
0.619848
551.393
8.63868
1.06355
554.436
11.6645
1.4049
557.544
13.1767
1.57513
560.133
12.9539
1.55087
561.82
11.3005
1.37306
562.509
8.79784
1.10412
562.354
6.05856
0.80958
561.596
3.49856
0.5305
560.465
1.33818
0.289101
559.146
-0.347569
0.0937652
557.772
-1.57606
-0.0561393
556.43
-2.41181
-0.165825
555.167
-2.93399
-0.242105
554.01
-3.2187
-0.291779
552.966
-3.33107
-0.320974
552.037
-3.32343
-0.334872
551.217
-3.23607
-0.3377
550.497
-3.09957
-0.332887
549.869
-2.93464
-0.322953
549.321
-2.75792
-0.310024
548.846
-2.58015
-0.295623
548.433
-2.40815
-0.280801
548.075
-2.24859
-0.266541
547.767
-2.10624
-0.253564
547.503
-1.98701
-0.242257
547.283
-1.89489
-0.233598
547.116
-1.85787
-0.227154
-1.81695
-0.220903
547.162
0.591537
0.126311
548.458
2.94028
0.498707
550.694
5.5079
0.895089
553.587
7.56282
1.20878
556.666
8.7131
1.38416
559.42
8.79442
1.40524
561.484
7.93851
1.2979
562.711
6.46635
1.10511
563.149
4.7459
0.874637
562.95
3.05612
0.641304
562.294
1.56726
0.427161
561.346
0.356746
0.243636
560.239
-0.564086
0.0943237
559.072
-1.22255
-0.022021
557.91
-1.66264
-0.109096
556.794
-1.9314
-0.171518
555.749
-2.07171
-0.213971
554.786
-2.11955
-0.240754
553.909
-2.10348
-0.255603
553.116
-2.04572
-0.26169
552.405
-1.96175
-0.261475
551.768
-1.86415
-0.257087
551.2
-1.7613
-0.250127
550.692
-1.65892
-0.24177
550.239
-1.56246
-0.233077
549.834
-1.47628
-0.224929
549.472
-1.40723
-0.217659
549.148
-1.35844
-0.212854
548.867
-1.36814
-0.208662
-1.41146
-0.20931
547.011
0.198073
0.0729625
548.127
1.39099
0.43315
550.2
2.62593
0.809632
552.973
3.67737
1.1123
556.047
4.33951
1.29975
558.972
4.51034
1.35833
561.389
4.21876
1.30259
563.101
3.59186
1.16315
564.076
2.79382
0.976481
564.396
1.963
0.773222
564.193
1.19508
0.575421
563.61
0.542912
0.396707
562.778
0.0246463
0.243787
561.801
-0.364122
0.118422
560.758
-0.639515
0.019296
559.706
-0.82227
-0.0564764
558.68
-0.933107
-0.112425
557.703
-0.99037
-0.152138
556.787
-1.00921
-0.178954
555.939
-1.00174
-0.195848
555.159
-0.976681
-0.205246
554.446
-0.941207
-0.209295
553.794
-0.90022
-0.20967
553.2
-0.857269
-0.20768
552.658
-0.815629
-0.204438
552.161
-0.778039
-0.200984
551.701
-0.749996
-0.197575
551.272
-0.732908
-0.196201
550.858
-0.760422
-0.193686
-0.861235
-0.200423
546.948
0.0328371
547.936
0.403198
549.78
0.781707
552.36
1.09738
555.381
1.31839
558.464
1.42798
561.253
1.42973
563.501
1.34304
565.099
1.19581
566.047
1.01556
566.417
0.825037
566.319
0.640793
565.87
0.473241
565.179
0.327642
564.333
0.205603
563.405
0.106369
562.444
0.0277922
561.487
-0.0329165
560.556
-0.0786981
559.667
-0.112394
558.826
-0.136503
558.039
-0.153279
557.303
-0.164586
556.618
-0.171949
555.979
-0.176659
555.381
-0.179948
554.813
-0.182168
554.265
-0.185526
553.691
-0.186128
-0.196296
529.76
7.60382
14.3651
118.679
27.1243
50.4852
120.068
122.268
123.264
-17.8068
104.753
8.28395
23.4482
-11.1981
-19.8982
2.68592
12.971
3.96479
3.76309
3.7561
3.95539
-2.64205
4.31931
-1.02355
-6.0433
5.38959
-12.2106
4.3741
-1.00591
-5.11159
13.9541
2.90336
-18.1286
19.2561
-0.680121
-3.35073
1.93332
-22.0674
22.8482
-0.45986
-2.2542
1.31481
-24.8239
25.379
-0.316251
-1.55362
0.916837
-26.7959
27.1975
-0.222307
-1.09613
0.656606
-28.2315
28.5273
-0.160125
-0.792254
0.482613
-29.2957
29.5177
-0.118172
-0.58638
0.363399
-30.0997
30.2695
-0.0892636
-0.443948
-30.7294
1.07928
124.052
-0.525077
-1.55826
-30.7403
-30.7837
-30.7943
506.724
-2.9894
-5.87247
-125.004
-125.134
-125.388
-125.51
511.402
-2.44484
-4.81313
515.273
-2.00951
-3.97075
518.503
-1.66923
-3.306
521.224
-1.40068
-2.77959
523.536
-1.18619
-2.35823
525.516
-1.0126
-2.01642
527.221
-0.870249
-1.73463
528.691
-0.747002
-1.4935
529.962
-0.65249
-1.28917
-0.509993
-1.06096
533.223
12.787
12.7598
122.433
43.7959
43.7259
125.152
125.137
127.211
-15.3001
-15.3207
112.384
20.3573
20.3131
-9.46979
-9.54601
-23.2279
19.9903
11.1391
11.1143
-9.90851
4.73895
4.72185
-5.9473
-5.97897
12.374
-17.083
3.65114
3.5943
-4.16588
-4.21685
18.2203
2.42642
2.39834
-21.0082
21.7873
-2.78797
-2.81589
1.65985
1.6479
-23.7968
24.3745
-1.93635
-1.94914
1.16198
1.15652
-25.882
26.3184
-1.37435
-1.38053
0.830613
0.827733
-27.4608
27.7924
-0.993292
-0.99668
0.606574
0.604804
-28.6632
28.9169
-0.731485
-0.733617
0.452511
0.451276
-29.5861
29.7821
-0.549135
-0.550644
0.344595
0.343649
-30.302
30.4553
-0.420221
-0.421386
-30.8816
1.0248
1.02182
124.641
-1.47778
-1.48215
-30.9323
-30.9323
-30.9814
508.716
-5.54832
-5.56678
-125.544
-125.903
-125.903
-126.239
512.975
-4.57027
-4.58678
516.539
-3.78795
-3.80289
519.539
-3.16598
-3.17961
522.085
-2.67035
-2.68287
524.261
-2.27166
-2.28322
526.135
-1.9469
-1.95761
527.756
-1.67815
-1.68809
529.162
-1.44789
-1.45712
530.364
-1.25117
-1.25976
-1.03381
-1.04188
537.802
14.9737
10.3709
128.095
48.1876
33.5372
130.515
129.641
131.646
-22.9272
-10.9121
123.404
23.7506
14.7796
-6.32613
-13.0475
51.7646
32.8812
27.6465
29.1547
28.4654
29.9224
-15.4151
-12.3084
-14.4792
-118.707
-7.27311
-5.60446
-6.67382
-4.93076
-7.25801
-6.7954
5.25735
9.44335
4.28305
0.955706
1.87962
-2.64736
3.70539
-2.63146
-1.26205
-22.698
7.41038
3.51093
-7.22399
-4.06538
23.0661
2.30838
4.81477
-24.085
-2.69855
24.4257
-4.76531
1.63284
3.36047
-25.436
25.7615
-3.39181
-1.92696
1.19343
2.44118
-26.6921
26.9845
-2.5063
-1.42065
0.885689
1.80598
-27.8032
28.0562
-1.88189
-1.06272
0.664821
1.35241
-28.7551
28.9684
-1.42735
-0.803195
0.505007
1.02519
-29.5525
29.7294
-1.09354
-0.613599
0.388633
0.787516
-30.2115
30.3571
-0.847295
-0.474388
0.303257
0.613654
-30.7531
30.8728
-0.664985
-0.37162
-31.2193
0.915365
1.86249
125.849
-2.188
-1.32778
-31.2947
-31.2619
-31.3351
512.267
-7.40714
-5.03197
-126.622
-127.122
-126.93
-127.401
515.827
-6.1737
-4.18679
518.862
-5.17388
-3.50203
521.46
-4.36512
-2.95073
523.694
-3.71089
-2.50617
525.627
-3.17832
-2.14505
527.309
-2.74017
-1.84849
528.776
-2.37416
-1.60134
530.06
-2.05944
-1.38853
531.171
-1.78421
-1.20566
-1.4977
-1.00286
542.124
14.8945
8.03528
534.713
45.333
24.4916
131.878
85.632
46.8959
134.566
133.173
135.079
-23.3543
-31.1858
-21.3942
-28.022
-45.1127
-13.3862
38.4308
17.9507
33.2174
33.367
33.8355
33.5753
-5.83215
-19.098
-34.9414
36.916
16.3204
6.6352
0.68082
-4.45626
-16.6449
11.9594
5.63695
2.82466
2.62305
6.58987
-13.4725
9.88155
-4.09477
-1.52716
9.97154
-30.4025
3.09944
29.6451
-8.75133
-3.5622
1.90034
6.05631
-28.6848
-2.23996
28.5659
-5.59783
1.3466
4.26481
-28.4995
28.5376
-4.04418
-1.60533
1.02394
3.21827
-28.7501
28.8409
-3.1049
-1.22807
0.799049
2.49549
-29.1583
29.272
-2.44515
-0.963132
0.628984
1.95631
-29.6265
29.7456
-1.94267
-0.761747
0.497013
1.54081
-30.1005
30.2157
-1.54842
-0.604537
0.394304
1.21895
-30.5497
30.6556
-1.23776
-0.481438
0.314567
0.970005
-30.9577
31.0521
-0.993701
-0.385332
0.252797
0.778206
-31.3187
31.4015
-0.80324
-0.310573
-31.6558
0.780123
2.42793
127.396
-2.61259
-1.13565
-31.7398
-31.6893
-31.7711
516.754
-8.51692
-4.37573
-128.006
-128.559
-128.255
-128.781
519.508
-7.19579
-3.68672
521.917
-6.10777
-3.11912
524.024
-5.21065
-2.65488
525.871
-4.47218
-2.27471
527.496
-3.86232
-1.96195
528.929
-3.35454
-1.7024
530.197
-2.92593
-1.48425
531.32
-2.55493
-1.29519
532.305
-2.22628
-1.13179
-1.88918
-0.948868
545.149
13.5038
5.99862
543.366
39.5189
17.4595
136.564
68.1759
30.3881
137.207
136.772
137.519
-32.1995
138.596
27.481
9.80485
-7.11813
-42.4398
-9.02476
148.537
33.4597
12.1822
-142.715
-9.1383
-1.94731
-155.167
25.287
9.2603
-7.79117
-8.67844
-7.3289
-1.76527
-1.77526
-1.4682
40.8021
40.4037
39.7529
39.5537
-0.943581
-0.24237
-41.412
40.9619
0.327667
1.30835
5.54641
4.22409
-149.515
141.381
-12.7833
-5.27149
5.89217
5.09173
5.43512
5.47962
-134.971
4.42509
130.785
-15.2069
-5.82879
5.18315
5.19853
4.93593
4.2171
3.56338
-128.082
126.485
-13.2088
-4.87147
3.99519
4.05227
3.84915
3.31347
2.86607
-125.49
124.933
-11.0829
-3.98927
3.16821
3.20878
3.07324
2.6845
2.35174
-124.64
124.544
-9.33257
-3.30604
2.57871
2.60971
2.5104
2.20448
1.9509
-124.591
124.739
-7.88487
-2.76244
2.12217
2.15038
2.07197
1.81778
1.62276
-124.972
125.258
-6.65597
-2.31235
1.75046
1.77802
1.71359
1.498
1.34818
-125.597
125.957
-5.60096
-1.93221
1.44272
1.46893
1.41578
1.23336
1.11843
-126.346
126.736
-4.69909
-1.61133
1.18817
1.21217
1.16855
1.01586
0.927749
-127.14
127.531
-3.93566
-1.34285
0.979088
1.00041
0.964766
0.838563
0.771142
-127.925
128.298
-3.29787
-1.12086
0.809394
0.827236
0.798849
2.71773
-128.674
0.643438
129.032
-2.77854
-0.940497
521.601
-8.96858
-3.69251
-129.487
-130.035
-129.684
-130.21
523.583
-7.68752
-3.15575
525.368
-6.60923
-2.70468
526.974
-5.70586
-2.32893
528.415
-4.94833
-2.01567
529.708
-4.31285
-1.7542
530.87
-3.77693
-1.53466
531.914
-3.31971
-1.34842
532.856
-2.92098
-1.18591
533.695
-2.56448
-1.04472
-2.19788
-0.884554
547.035
11.4626
4.32881
548.245
32.8609
12.2702
554.149
53.5606
19.983
567.777
69.7303
26.0075
-23.2759
-25.6998
-21.6594
-23.7131
147.28
71.59
26.8403
-26.8554
-25.1028
-24.8103
-23.2078
145.641
146.677
145.337
-20.4213
-3.44117
149.39
17.0132
4.7389
-5.30192
-1.01661
-149.673
148.326
6.16091
1.50428
557.341
-8.29065
-5.04015
7.15618
9.29977
5.99495
8.0073
-145.347
-144.126
-144.847
-143.884
540.765
-20.8203
-9.24602
10.829
10.6496
9.6897
9.66934
530.496
-25.1078
-10.1273
10.5524
9.959
9.73584
9.27243
524.632
-25.41
-9.72127
9.41434
8.84228
8.82774
8.33316
521.508
-24.0428
-8.90855
8.21824
7.72468
7.7772
7.33632
520.101
-22.0368
-7.99812
7.12582
6.69566
6.78219
6.39368
519.8
-19.8278
-7.09101
6.14227
5.76802
5.87673
5.53355
520.231
-17.6212
-6.2284
5.26554
4.93994
5.0601
4.7589
521.133
-15.5144
-5.43186
4.49163
4.21118
4.33358
4.07206
522.317
-13.567
-4.71358
3.81791
3.57975
3.69673
3.47302
523.646
-11.8127
-4.07931
3.24003
3.04188
3.14704
2.95971
525.047
-10.2606
-3.52333
2.75356
2.57902
2.67895
2.50164
526.413
-8.89586
-3.04887
527.718
-7.73832
-2.64422
528.946
-6.74275
-2.29778
530.089
-5.8911
-2.00283
531.145
-5.16318
-1.75217
532.115
-4.54291
-1.53978
533.007
-4.01316
-1.35931
533.827
-3.55664
-1.20485
534.581
-3.15583
-1.06927
535.268
-2.79501
-0.951051
-2.41978
-0.814683
548.004
9.2767
3.04157
550.54
26.4775
8.53136
555.996
42.1046
13.4259
565.037
53.2331
16.8915
574.792
54.3029
17.1202
577.86
41.4762
12.3995
-14.4705
-11.175
-13.8095
-10.6851
572.138
21.5461
5.85027
-6.3558
-2.94412
-6.30435
-3.12805
560.73
2.91333
-0.360169
550.034
-8.7115
-3.78431
541.889
-14.757
-5.31595
536.307
-17.3172
-5.80243
532.685
-17.8754
-5.74709
530.474
-17.3759
-5.44124
529.251
-16.3179
-5.01947
528.726
-15.0024
-4.55288
528.692
-13.5888
-4.08116
528.997
-12.1786
-3.62774
529.527
-10.8356
-3.20674
530.191
-9.59084
-2.82378
530.935
-8.46245
-2.48266
531.701
-7.46482
-2.18409
532.465
-6.58754
-1.92332
533.209
-5.82157
-1.69683
533.922
-5.15495
-1.50083
534.599
-4.5785
-1.3323
535.24
-4.08038
-1.18749
535.845
-3.64746
-1.0626
536.418
-3.26558
-0.952561
536.955
-2.92059
-0.856551
-2.55561
-0.743575
548.367
7.22103
2.1073
551.262
20.883
5.91318
556.102
33.0822
9.18782
562.712
41.4826
11.3517
569.089
42.6921
11.5426
571.499
34.878
9.05567
568.677
21.8134
5.27411
562.19
8.52611
1.50495
555.101
-1.30687
-1.04298
548.956
-7.55988
-2.55325
544.179
-11.0929
-3.31963
540.682
-12.7607
-3.61685
538.232
-13.27
-3.64216
536.581
-13.0525
-3.51169
535.534
-12.4265
-3.29584
534.938
-11.5742
-3.03818
534.676
-10.618
-2.76585
534.657
-9.63813
-2.49609
534.811
-8.68207
-2.23885
535.083
-7.78258
-2.00086
535.429
-6.95775
-1.78553
535.819
-6.2141
-1.59292
536.231
-5.55129
-1.42223
536.653
-4.96429
-1.27189
537.074
-4.44965
-1.1408
537.491
-4.00039
-1.02701
537.9
-3.60748
-0.928303
538.304
-3.26047
-0.841318
538.7
-2.94764
-0.765747
-2.60908
-0.674759
548.38
5.44188
1.4492
551.188
16.1749
4.11759
555.38
25.9408
6.39868
560.514
32.7129
7.89474
565.217
34.2354
8.12791
567.41
29.4982
6.7889
566.286
20.7406
4.55645
562.596
11.1035
2.16712
557.95
3.0924
0.313673
553.46
-2.69697
-0.970057
549.6
-6.4732
-1.75837
546.506
-8.68464
-2.19193
544.116
-9.79082
-2.38411
542.329
-10.1466
-2.42095
541.027
-10.0244
-2.36066
540.11
-9.60519
-2.24258
539.495
-9.01524
-2.09292
539.112
-8.34087
-1.92919
538.907
-7.63845
-1.7627
538.835
-6.94707
-1.60133
538.861
-6.28969
-1.44964
538.957
-5.68111
-1.31018
539.102
-5.12719
-1.18385
539.282
-4.62822
-1.07053
539.486
-4.18515
-0.970371
539.708
-3.79508
-0.882641
539.944
-3.45289
-0.806295
540.195
-3.15185
-0.739331
540.46
-2.88379
-0.681856
-2.58523
-0.610867
548.22
3.95021
0.995048
550.742
12.3048
2.8962
554.343
20.221
4.5542
558.547
25.8613
5.6772
562.381
27.6164
5.95692
564.556
24.8425
5.24135
564.516
18.9104
3.88653
562.576
11.8867
2.32718
559.647
5.49778
0.980867
556.457
0.462367
-0.0524354
553.455
-3.15134
-0.773743
550.845
-5.52448
-1.23519
548.667
-6.92766
-1.50194
546.91
-7.63384
-1.63074
545.518
-7.85401
-1.66538
544.435
-7.75126
-1.63798
543.607
-7.44397
-1.57145
542.986
-7.01659
-1.48198
542.534
-6.52752
-1.38076
542.215
-6.01811
-1.27587
542.001
-5.51385
-1.17234
541.869
-5.03348
-1.07381
541.802
-4.58671
-0.982215
541.784
-4.17742
-0.898361
541.807
-3.80971
-0.823184
541.862
-3.48391
-0.756804
541.946
-3.19838
-0.698999
542.06
-2.95011
-0.648881
542.206
-2.73601
-0.606911
-2.48902
-0.553673
547.962
2.75488
0.687586
550.139
9.15788
2.07245
553.237
15.5582
3.33768
556.836
20.2717
4.23136
560.224
22.0853
4.54133
562.501
20.5762
4.17886
563.196
16.6064
3.34022
562.44
11.5146
2.29728
560.725
6.55228
1.30894
558.569
2.34855
0.486448
556.315
-0.862141
-0.140277
554.184
-3.1424
-0.584238
552.285
-4.63095
-0.877243
550.645
-5.50631
-1.05427
549.26
-5.93262
-1.14635
548.107
-6.04389
-1.17808
547.16
-5.94322
-1.16836
546.389
-5.70733
-1.13133
545.767
-5.39162
-1.07737
545.271
-5.03629
-1.01423
544.878
-4.66703
-0.947058
544.572
-4.30374
-0.879924
544.336
-3.95795
-0.815316
544.158
-3.63572
-0.754657
544.03
-3.34305
-0.699375
543.943
-3.08266
-0.650169
543.895
-2.85597
-0.607392
543.886
-2.66334
-0.571056
543.922
-2.50908
-0.541969
-2.32399
-0.504208
547.683
1.81818
0.481317
549.506
6.61385
1.53054
552.2
11.6658
2.53972
555.414
15.4999
3.28765
558.575
17.2079
3.61222
560.981
16.5186
3.45493
562.239
13.9354
2.93022
562.333
10.341
2.21337
561.533
6.6204
1.47813
560.172
3.29093
0.820783
558.557
0.594457
0.28291
556.881
-1.42505
-0.128456
555.269
-2.83193
-0.425107
553.787
-3.7368
-0.626897
552.462
-4.25603
-0.754359
551.299
-4.49279
-0.825601
550.292
-4.53102
-0.855659
549.428
-4.43576
-0.856502
548.692
-4.25568
-0.837404
548.069
-4.02696
-0.805596
547.543
-3.7735
-0.766143
547.101
-3.51423
-0.723225
546.732
-3.26092
-0.67965
546.424
-3.02052
-0.637231
546.17
-2.79986
-0.597711
545.963
-2.60316
-0.56219
545.799
-2.4344
-0.531395
545.678
-2.2966
-0.50606
545.609
-2.20427
-0.487317
-2.09063
-0.462887
547.391
1.10085
0.339978
548.907
4.54092
1.17679
551.305
8.30451
2.02711
554.296
11.2303
2.68322
557.358
12.706
3.0153
559.923
12.5223
2.98207
561.616
10.9605
2.65441
562.34
8.57224
2.14957
562.24
5.94027
1.5896
561.538
3.46807
1.05499
560.46
1.37256
0.589353
559.188
-0.26959
0.210093
557.854
-1.47168
-0.0828231
556.544
-2.29374
-0.298585
555.307
-2.81109
-0.449826
554.169
-3.09684
-0.549404
553.139
-3.21392
-0.609005
552.221
-3.2131
-0.638593
551.407
-3.13361
-0.646346
550.692
-3.00533
-0.638926
550.065
-2.84853
-0.621247
549.518
-2.67955
-0.597492
549.041
-2.50901
-0.570652
548.626
-2.34368
-0.542813
548.266
-2.19018
-0.515926
547.954
-2.05332
-0.491382
547.686
-1.93899
-0.470122
547.461
-1.85138
-0.453422
547.29
-1.81761
-0.442632
-1.78357
-0.429611
547.153
0.561407
0.233419
548.426
2.81564
0.951383
550.623
5.28818
1.71465
553.469
7.27428
2.31863
556.504
8.39481
2.66075
559.228
8.49236
2.71073
561.286
7.68737
2.51338
562.529
6.2845
2.14996
562.999
4.63385
1.71031
562.841
3.00493
1.26227
562.228
1.56392
0.848846
561.322
0.387868
0.492807
560.253
-0.510162
0.201893
559.118
-1.15499
-0.0257202
557.982
-1.58819
-0.196805
556.889
-1.85474
-0.320067
555.861
-1.99598
-0.404452
554.912
-2.04668
-0.458233
554.046
-2.0346
-0.488632
553.263
-1.98138
-0.501811
552.557
-1.90214
-0.502556
551.925
-1.8092
-0.495029
551.359
-1.71082
-0.482363
550.853
-1.61264
-0.466871
550.401
-1.52007
-0.450648
549.995
-1.43744
-0.435329
549.632
-1.37162
-0.421954
549.305
-1.32558
-0.412147
549.024
-1.33754
-0.407133
-1.38425
-0.403869
547.004
0.185481
0.136119
548.101
1.32656
0.825949
550.136
2.51084
1.55116
552.864
3.52333
2.13541
555.892
4.16514
2.50184
558.781
4.33791
2.62349
561.18
4.06652
2.52483
562.892
3.47163
2.26334
563.886
2.70898
1.9079
564.234
1.91157
1.51787
564.066
1.17198
1.13613
563.519
0.541877
0.789539
562.721
0.0396005
0.491724
561.776
-0.338373
0.246651
560.762
-0.607098
0.0521798
559.734
-0.786262
-0.0970186
558.729
-0.895691
-0.207628
557.77
-0.953027
-0.286525
556.87
-0.972894
-0.340157
556.034
-0.967018
-0.374302
555.264
-0.943873
-0.393689
554.558
-0.910436
-0.402511
553.913
-0.871501
-0.404058
553.324
-0.830551
-0.400888
552.786
-0.790821
-0.395246
552.292
-0.754943
-0.388993
551.834
-0.728639
-0.383262
551.405
-0.712312
-0.379816
550.994
-0.742022
-0.379075
-0.841035
-0.384393
546.941
0.0639324
547.912
0.758754
549.724
1.48099
552.258
2.08634
555.229
2.5123
558.266
2.72865
561.022
2.74021
563.255
2.58227
564.853
2.30681
565.814
1.96624
566.207
1.60403
566.137
1.25198
565.72
0.93041
565.059
0.649875
564.244
0.413859
563.343
0.22124
562.407
0.0681437
561.471
-0.0506102
560.56
-0.14056
559.688
-0.207102
558.863
-0.25502
558.088
-0.288643
557.363
-0.311579
556.687
-0.326766
556.057
-0.336771
555.466
-0.343808
554.904
-0.34915
554.361
-0.355266
553.793
-0.359951
-0.373511
535.567
6.02664
16.5141
126.028
20.0379
54.4024
126.812
129.109
129.662
-26.1882
119.459
5.86231
26.8955
-14.8471
-27.0337
25.3269
1.77025
14.7836
0.302131
1.22455
-0.016472
-1.51008
-19.7365
9.07471
-1.04398
-8.81241
20.5182
5.7672
-22.2188
-0.651602
22.7215
-5.61823
3.90316
-24.1314
24.5688
-0.449794
-3.89071
2.76515
-25.7833
26.1549
-0.323627
-2.81311
2.00259
-27.1725
27.4803
-0.236974
-2.07341
1.47329
-28.3155
28.5661
-0.175809
-1.54809
1.10097
-29.2425
29.4446
-0.132236
-1.17086
0.836247
-29.989
30.1516
-0.100943
-0.897897
0.645888
-30.59
30.7214
-0.0782734
-0.698965
-31.0922
1.96047
125.352
-0.468226
-2.29767
-31.1013
-31.1723
-31.1809