/*--------------------------------*- C++ -*----------------------------------*\
  =========                 |
  \\      /  F ield         | OpenFOAM: The Open Source CFD Toolbox
   \\    /   O peration     | Website:  https://openfoam.org
    \\  /    A nd           | Version:  7
     \\/     M anipulation  |
\*---------------------------------------------------------------------------*/
FoamFile
{
    version     2.0;
    format      ascii;
    class       volVectorField;
    location    "800";
    object      U;
}
// * * * * * * * * * * * * * * * * * * * * * * * * * * * * * * * * * * * * * //

dimensions      [0 1 -1 0 0 0 0];

internalField   nonuniform List<vector> 
27370
(
(13.8846 0.0862896 0.0857578)
(13.0647 0.333597 0.332428)
(11.0084 0.373451 0.364863)
(5.10007 0.518522 0.484043)
(-0.739801 -0.092766 -0.114369)
(2.87384 -0.169263 -0.179055)
(6.10502 -0.125682 -0.128706)
(8.30823 -0.0841105 -0.0850381)
(9.76835 -0.0560317 -0.0563667)
(10.7514 -0.0382257 -0.038376)
(11.4327 -0.0268924 -0.0269756)
(11.9197 -0.0194991 -0.0195535)
(12.2779 -0.014539 -0.0145792)
(12.5837 -0.0214851 -0.0215473)
(12.8428 -0.0315528 -0.0316534)
(12.9902 -0.0254946 -0.0255828)
(13.108 -0.020755 -0.0208337)
(13.2053 -0.0171022 -0.0171735)
(13.2863 -0.0142592 -0.0143241)
(13.3544 -0.0120086 -0.0120682)
(13.4122 -0.0102005 -0.0102555)
(13.4615 -0.00873179 -0.0087826)
(13.5044 -0.00746119 -0.00750824)
(13.5386 -0.00649745 -0.0065411)
(13.5793 -0.00503212 -0.00507312)
(13.8902 0.22873 0.0749239)
(13.2562 0.845351 0.278206)
(11.6605 1.60234 0.313587)
(7.24565 3.7508 0.411805)
(1.55298 -1.3957 -0.151503)
(5.33098 -1.40898 -0.157999)
(7.65426 -0.953932 -0.10724)
(9.20225 -0.643511 -0.0719921)
(10.2853 -0.4417 -0.0492426)
(11.0608 -0.310038 -0.0345017)
(11.6264 -0.223044 -0.0247997)
(12.0465 -0.164443 -0.0182778)
(12.3647 -0.12411 -0.0137973)
(12.6541 -0.102137 -0.0204244)
(12.905 -0.0898456 -0.0298671)
(13.0382 -0.0731251 -0.0242949)
(13.146 -0.0599003 -0.0199007)
(13.2359 -0.0495782 -0.016483)
(13.3114 -0.0414854 -0.0138038)
(13.3753 -0.0350468 -0.01167)
(13.4298 -0.0298508 -0.00994674)
(13.4766 -0.0256019 -0.00853993)
(13.5174 -0.0219551 -0.00732247)
(13.5503 -0.0189853 -0.00639492)
(13.5893 -0.0152682 -0.00495687)
(13.9145 0.303938 0.059921)
(13.5043 1.03086 0.202792)
(12.6372 2.053 0.221352)
(10.763 4.5458 0.263697)
(0.722694 -0.00939802 0.0528945)
(8.18371 -2.66163 -0.150872)
(9.16653 -1.72725 -0.0998875)
(9.96021 -1.19328 -0.0700208)
(10.633 -0.856106 -0.0503484)
(11.1924 -0.626146 -0.0367771)
(11.6499 -0.464341 -0.0272343)
(12.0199 -0.349137 -0.0204575)
(12.3176 -0.266419 -0.0156019)
(12.5572 -0.206536 -0.0120929)
(12.7968 -0.164485 -0.0181949)
(13.0148 -0.134871 -0.0267939)
(13.1243 -0.111037 -0.0220473)
(13.2151 -0.0919803 -0.0182482)
(13.2922 -0.0768199 -0.0152472)
(13.358 -0.064759 -0.0128629)
(13.4144 -0.0550554 -0.0109432)
(13.4631 -0.0471503 -0.00937889)
(13.5052 -0.04062 -0.00809198)
(13.5424 -0.0350269 -0.00697288)
(13.5726 -0.0302193 -0.00611649)
(13.6087 -0.0250599 -0.00476637)
(13.9542 0.317112 0.0457771)
(13.7146 1.01793 0.143521)
(13.4643 2.06604 0.295706)
(13.1924 3.66895 0.280227)
(14.1388 6.41856 0.25702)
(11.5295 -5.61206 -0.186021)
(11.6507 -3.27481 -0.132888)
(11.3486 -2.00252 -0.0794192)
(11.393 -1.42336 -0.0563853)
(11.5646 -1.07131 -0.042559)
(11.7864 -0.827666 -0.0329005)
(12.0206 -0.646155 -0.0256597)
(12.2467 -0.506987 -0.0201074)
(12.4539 -0.399699 -0.0158357)
(12.6375 -0.317097 -0.0125543)
(12.797 -0.253777 -0.0100406)
(12.9764 -0.203323 -0.0154652)
(13.1507 -0.163984 -0.0230972)
(13.2337 -0.136951 -0.0192787)
(13.3048 -0.114973 -0.0161684)
(13.3667 -0.0971275 -0.0136641)
(13.4205 -0.0826706 -0.0116387)
(13.4675 -0.0708662 -0.00998513)
(13.5087 -0.0611308 -0.00862177)
(13.5449 -0.053 -0.0074894)
(13.5772 -0.0459954 -0.00649747)
(13.6038 -0.0398614 -0.00573419)
(13.6361 -0.0334881 -0.0045154)
(13.9814 0.295963 0.0336843)
(13.8828 0.894336 0.0992879)
(13.8434 1.63428 0.178953)
(13.946 2.52032 0.144738)
(14.8118 3.23103 0.187767)
(16.4343 2.99351 0.0909868)
(17.2911 0.285931 0.00908992)
(14.8057 -1.56211 -0.0947739)
(13.3992 -1.5443 -0.0918035)
(12.8683 -1.2438 -0.0733534)
(12.6812 -1.00255 -0.0586461)
(12.6374 -0.822148 -0.0478115)
(12.6629 -0.680528 -0.0394369)
(12.7256 -0.564311 -0.0326302)
(12.8082 -0.467226 -0.0269765)
(12.8993 -0.386228 -0.0222788)
(12.9913 -0.319222 -0.0184072)
(13.0794 -0.264264 -0.0152534)
(13.1626 -0.22019 -0.0127144)
(13.2946 -0.178304 -0.019334)
(13.3528 -0.151183 -0.0163897)
(13.4047 -0.128717 -0.0139465)
(13.4513 -0.11011 -0.0119374)
(13.4928 -0.0947379 -0.0102799)
(13.5299 -0.0819777 -0.00890514)
(13.563 -0.0713097 -0.00775687)
(13.5926 -0.0622971 -0.00679336)
(13.6195 -0.05447 -0.0059425)
(13.6419 -0.0475379 -0.00528473)
(13.6698 -0.0403511 -0.00421807)
(13.9972 0.256948 0.0240217)
(13.987 0.744744 0.0684493)
(14.0359 1.2523 0.113844)
(14.2856 1.67918 0.15335)
(14.7799 1.75286 0.160319)
(15.2786 1.52538 0.0724796)
(15.362 0.443347 0.0195892)
(14.5162 -0.386141 -0.0405684)
(13.9567 -0.623314 -0.0607598)
(13.6066 -0.668258 -0.0618819)
(13.412 -0.632444 -0.057118)
(13.3091 -0.571956 -0.050996)
(13.2612 -0.50741 -0.0448955)
(13.2484 -0.445099 -0.0391801)
(13.2584 -0.3871 -0.0339485)
(13.283 -0.334379 -0.0292506)
(13.3164 -0.287419 -0.0251076)
(13.3543 -0.246331 -0.0215232)
(13.3943 -0.210383 -0.018446)
(13.4339 -0.180613 -0.0158372)
(13.4715 -0.155609 -0.0136466)
(13.5067 -0.134346 -0.0117916)
(13.5394 -0.116391 -0.0102266)
(13.5695 -0.101263 -0.00890856)
(13.5971 -0.0884938 -0.00779757)
(13.6223 -0.0776699 -0.00685738)
(13.6453 -0.0684229 -0.00606078)
(13.6667 -0.060327 -0.00535214)
(13.6848 -0.0530944 -0.00480272)
(13.7081 -0.04553 -0.0038957)
(14.0059 0.211175 0.0167228)
(14.0406 0.602718 0.0468265)
(14.1267 0.969476 0.07448)
(14.3222 1.24188 0.0951361)
(14.6166 1.26609 0.0969006)
(14.8448 0.927041 0.0682361)
(14.8034 0.41065 0.0285173)
(14.5136 -0.046848 -0.00710644)
(14.1801 -0.296168 -0.024911)
(13.9228 -0.404468 -0.0319304)
(13.7468 -0.435178 -0.0334313)
(13.6325 -0.427186 -0.0322782)
(13.5623 -0.40114 -0.0299917)
(13.5228 -0.367322 -0.0272743)
(13.5048 -0.330882 -0.0244513)
(13.5017 -0.29461 -0.0216983)
(13.5091 -0.260127 -0.019116)
(13.5232 -0.228415 -0.0167636)
(13.5416 -0.199633 -0.0146576)
(13.5624 -0.174414 -0.0128094)
(13.5841 -0.1525 -0.0112144)
(13.6057 -0.133475 -0.00982971)
(13.6267 -0.117065 -0.00863511)
(13.6468 -0.102969 -0.00760988)
(13.6659 -0.0908766 -0.0067322)
(13.6838 -0.0804928 -0.00598024)
(13.7006 -0.0715335 -0.00533784)
(13.7167 -0.0636368 -0.00476338)
(13.7307 -0.0565401 -0.00431782)
(13.7493 -0.049003 -0.00356843)
(14.0095 0.166354 0.0114791)
(14.0622 0.476338 0.0320284)
(14.1562 0.754269 0.0499292)
(14.3124 0.948955 0.0620875)
(14.509 0.970541 0.0630765)
(14.6513 0.762372 0.048347)
(14.6428 0.435097 0.0265132)
(14.492 0.116063 0.00549855)
(14.2886 -0.0992073 -0.00792697)
(14.1055 -0.223994 -0.0154367)
(13.9611 -0.286305 -0.0189714)
(13.8547 -0.309239 -0.0200789)
(13.7798 -0.3091 -0.0198341)
(13.7292 -0.296035 -0.0188611)
(13.6968 -0.276096 -0.0175124)
(13.6779 -0.252945 -0.0160003)
(13.6691 -0.228853 -0.014455)
(13.6676 -0.205274 -0.0129581)
(13.6712 -0.182985 -0.0115525)
(13.6785 -0.162456 -0.010273)
(13.688 -0.144057 -0.00913023)
(13.6988 -0.127706 -0.0081133)
(13.7103 -0.1133 -0.00721732)
(13.722 -0.1007 -0.00643426)
(13.7338 -0.0897314 -0.00575389)
(13.7453 -0.0802027 -0.00516449)
(13.7566 -0.0719162 -0.00465781)
(13.7678 -0.0645839 -0.00420398)
(13.7778 -0.057983 -0.00385303)
(13.7921 -0.0508239 -0.00325263)
(14.01 0.126634 0.00782359)
(14.0659 0.369919 0.0220237)
(14.1552 0.588273 0.0342484)
(14.2827 0.739023 0.0423094)
(14.4267 0.766354 0.043416)
(14.5307 0.641301 0.0355652)
(14.543 0.425004 0.0230231)
(14.4656 0.196965 0.00998289)
(14.3416 0.0191588 0.000230037)
(14.2142 -0.101837 -0.00626642)
(14.102 -0.175614 -0.0101388)
(14.0107 -0.21484 -0.0121331)
(13.94 -0.230974 -0.0129073)
(13.887 -0.232345 -0.0129162)
(13.8482 -0.224673 -0.0124598)
(13.8209 -0.211762 -0.0117366)
(13.8024 -0.196129 -0.0108767)
(13.7908 -0.17945 -0.00996631)
(13.7844 -0.162766 -0.0090591)
(13.782 -0.146755 -0.00819254)
(13.7825 -0.131892 -0.00738934)
(13.785 -0.118328 -0.00665542)
(13.7889 -0.10612 -0.0059943)
(13.7938 -0.0952554 -0.00540579)
(13.7994 -0.0856668 -0.00488715)
(13.8055 -0.0772543 -0.00443347)
(13.8119 -0.0699014 -0.00404199)
(13.8188 -0.063397 -0.00369268)
(13.8252 -0.057575 -0.00342451)
(13.8354 -0.0510874 -0.00296042)
(14.0087 0.0932696 0.00533333)
(14.0603 0.282673 0.0153268)
(14.14 0.458088 0.0240923)
(14.2466 0.581325 0.0299649)
(14.3611 0.614099 0.0313157)
(14.4477 0.540043 0.0271447)
(14.475 0.394999 0.0196581)
(14.4412 0.229719 0.0112618)
(14.3682 0.0867048 0.00421305)
(14.2821 -0.0214043 -0.00106409)
(14.198 -0.0954271 -0.00466146)
(14.1234 -0.141401 -0.0068948)
(14.0608 -0.166562 -0.00813238)
(14.01 -0.177193 -0.00867733)
(13.9697 -0.178119 -0.0087583)
(13.9384 -0.172842 -0.00853945)
(13.9144 -0.163824 -0.00813633)
(13.8965 -0.152781 -0.00762998)
(13.8834 -0.140858 -0.00707516)
(13.8741 -0.128834 -0.00651024)
(13.868 -0.117243 -0.00596193)
(13.8642 -0.106367 -0.00544397)
(13.8622 -0.0963656 -0.00496515)
(13.8616 -0.0873126 -0.00453029)
(13.8622 -0.0792214 -0.00414144)
(13.8637 -0.0720662 -0.00379836)
(13.8658 -0.0658036 -0.00350195)
(13.8688 -0.0602997 -0.00324054)
(13.8721 -0.0554685 -0.00304232)
(13.8784 -0.0498986 -0.00269999)
(14.0063 0.0662059 0.00366744)
(14.0502 0.212106 0.0108912)
(14.1195 0.35407 0.0174777)
(14.2109 0.456954 0.0220751)
(14.3083 0.492623 0.0235909)
(14.3873 0.450783 0.0214619)
(14.4262 0.353244 0.0168794)
(14.421 0.233318 0.011309)
(14.3828 0.120841 0.00616941)
(14.3275 0.0289645 0.00196278)
(14.2669 -0.039183 -0.00118863)
(14.2081 -0.0856622 -0.00337958)
(14.1548 -0.114601 -0.00479425)
(14.1086 -0.1304 -0.00562185)
(14.0694 -0.136862 -0.00602559)
(14.0368 -0.136951 -0.00613206)
(14.01 -0.132885 -0.00603732)
(13.9882 -0.126279 -0.00581279)
(13.9706 -0.118268 -0.00550995)
(13.9566 -0.109647 -0.00516622)
(13.9456 -0.100967 -0.00480884)
(13.937 -0.0925716 -0.00445512)
(13.9305 -0.0846751 -0.00411697)
(13.9255 -0.0774062 -0.00380231)
(13.922 -0.0708335 -0.00351626)
(13.9195 -0.0649877 -0.00326178)
(13.9181 -0.0598891 -0.00304204)
(13.9177 -0.0554781 -0.00285277)
(13.918 -0.0517848 -0.0027116)
(13.9208 -0.0473462 -0.00247611)
(14.0032 0.0448679 0.00256115)
(14.0384 0.155358 0.00798585)
(14.0982 0.269002 0.0131849)
(14.1786 0.354004 0.0169978)
(14.2665 0.389347 0.0185979)
(14.3429 0.368087 0.0176332)
(14.3912 0.303603 0.0147841)
(14.4062 0.21787 0.0109861)
(14.3929 0.131856 0.00717559)
(14.3612 0.0571381 0.00381533)
(14.3198 -0.0017523 0.00110143)
(14.275 -0.0446297 -0.000947082)
(14.2311 -0.0735385 -0.00240402)
(14.1903 -0.091338 -0.00337872)
(14.1536 -0.100816 -0.00398013)
(14.1213 -0.104331 -0.00430192)
(14.0933 -0.103749 -0.00442093)
(14.0693 -0.100489 -0.00439788)
(14.0489 -0.0955897 -0.00427918)
(14.0316 -0.0897946 -0.00410006)
(14.017 -0.0836334 -0.00388716)
(14.0048 -0.0774598 -0.00365929)
(13.9946 -0.071508 -0.00343011)
(13.9862 -0.0659329 -0.00320946)
(13.9792 -0.060836 -0.00300446)
(13.9735 -0.056287 -0.00282034)
(13.9689 -0.05236 -0.00266146)
(13.9655 -0.0490617 -0.0025302)
(13.9631 -0.0465869 -0.00243366)
(13.9625 -0.0434763 -0.00229088)
(13.9999 0.0284974 0.0018108)
(14.0267 0.109659 0.00610073)
(14.0789 0.197363 0.0104419)
(14.152 0.264707 0.0137708)
(14.2346 0.296669 0.0154153)
(14.311 0.288386 0.0151422)
(14.3674 0.247742 0.0133662)
(14.3975 0.188791 0.0107081)
(14.403 0.125903 0.00781612)
(14.3897 0.068328 0.00508783)
(14.3641 0.0206432 0.00273605)
(14.3317 -0.0158704 0.000839345)
(14.2966 -0.0419448 -0.000611521)
(14.2614 -0.0592426 -0.00166949)
(14.2278 -0.0696598 -0.00240228)
(14.1967 -0.0749462 -0.00287677)
(14.1685 -0.0765645 -0.0031529)
(14.1433 -0.075672 -0.00328138)
(14.121 -0.0731454 -0.00330331)
(14.1013 -0.0696305 -0.00325139)
(14.0841 -0.0655957 -0.00315133)
(14.0691 -0.0613676 -0.00302249)
(14.0561 -0.0571707 -0.0028796)
(14.0448 -0.0531626 -0.0027338)
(14.035 -0.0494572 -0.00259352)
(14.0265 -0.0461453 -0.00246574)
(14.0192 -0.0433427 -0.002355)
(14.0129 -0.0411052 -0.00227003)
(14.0081 -0.039844 -0.00220637)
(14.004 -0.0382472 -0.00214392)
(13.9971 0.0161886 0.00125239)
(14.017 0.0724943 0.00490793)
(14.0636 0.135006 0.00877832)
(14.1318 0.184068 0.0118318)
(14.2116 0.210106 0.0135269)
(14.2894 0.209578 0.0137042)
(14.3528 0.186468 0.0126263)
(14.3952 0.149101 0.0107207)
(14.4158 0.106681 0.00845861)
(14.4177 0.0658856 0.00617828)
(14.4055 0.0305834 0.00409209)
(14.384 0.00236283 0.00230926)
(14.357 -0.0187304 0.000862498)
(14.3273 -0.033512 -0.000262043)
(14.2972 -0.0431349 -0.00110151)
(14.2678 -0.0487696 -0.00170149)
(14.24 -0.0514547 -0.00210788)
(14.2143 -0.0520463 -0.00236275)
(14.1907 -0.0512143 -0.00250247)
(14.1694 -0.0494649 -0.0025574)
(14.1502 -0.0471727 -0.00255238)
(14.133 -0.0446067 -0.00250708)
(14.1176 -0.0419573 -0.002437)
(14.1038 -0.0393642 -0.00235434)
(14.0916 -0.0369339 -0.00226843)
(14.0806 -0.0347598 -0.00218787)
(14.0709 -0.0329807 -0.00211646)
(14.062 -0.0316735 -0.00206926)
(14.0548 -0.0314773 -0.00202731)
(14.0465 -0.0315091 -0.00203418)
(13.9961 0.00646407 0.000725658)
(14.0109 0.0416566 0.00427092)
(14.053 0.0790129 0.0079501)
(14.117 0.109317 0.0108953)
(14.1946 0.127382 0.0127073)
(14.2743 0.130595 0.0132513)
(14.3447 0.120166 0.0126773)
(14.3983 0.100264 0.0112915)
(14.4325 0.0759475 0.00945439)
(14.4484 0.0513212 0.00746451)
(14.4489 0.0290811 0.0055349)
(14.438 0.0106011 0.00379675)
(14.4191 -0.00375796 0.00231333)
(14.3953 -0.0142633 0.00110012)
(14.369 -0.0214851 0.000143082)
(14.3419 -0.0260831 -0.000586747)
(14.3151 -0.0286849 -0.00112418)
(14.2893 -0.0298302 -0.00150444)
(14.2651 -0.0299537 -0.00176013)
(14.2425 -0.0293915 -0.00191986)
(14.2216 -0.0283954 -0.0020079)
(14.2025 -0.0271516 -0.00204437)
(14.1851 -0.0257912 -0.00204542)
(14.1692 -0.0244173 -0.00202443)
(14.1547 -0.0231048 -0.00199136)
(14.1414 -0.0219281 -0.0019564)
(14.1293 -0.021023 -0.00192224)
(14.1176 -0.0204041 -0.00190889)
(14.1081 -0.0209121 -0.00188195)
(14.0941 -0.0225149 -0.00194824)
(13.9983 0.000679142 0.000315488)
(14.0092 0.016237 0.00396633)
(14.0448 0.0332659 0.00770378)
(14.1027 0.0486816 0.0107975)
(14.1765 0.0598996 0.0129516)
(14.2571 0.0651137 0.0140071)
(14.3346 0.0639457 0.0139998)
(14.4006 0.0574953 0.0131254)
(14.4505 0.0477115 0.011663)
(14.4829 0.0365287 0.00988388)
(14.4992 0.0254695 0.00801035)
(14.5019 0.0155276 0.00620353)
(14.4942 0.00719982 0.00456415)
(14.4789 0.000614663 0.00314266)
(14.4587 -0.00432752 0.00195378)
(14.4355 -0.00784873 0.000989102)
(14.411 -0.0102135 0.000226953)
(14.3863 -0.0116798 -0.000360414)
(14.362 -0.0124743 -0.000802138)
(14.3386 -0.012784 -0.00112603)
(14.3164 -0.0127565 -0.00135703)
(14.2955 -0.0125057 -0.00151682)
(14.276 -0.0121162 -0.00162351)
(14.2579 -0.0116532 -0.00169257)
(14.2409 -0.0111685 -0.00173583)
(14.2251 -0.0106996 -0.00176565)
(14.2104 -0.010335 -0.00178486)
(14.1955 -0.0100658 -0.00181767)
(14.1841 -0.0102527 -0.00181884)
(14.1608 -0.0118156 -0.00191662)
(13.8901 0.0750418 0.228255)
(13.256 0.278862 0.843587)
(11.659 0.314707 1.59697)
(7.24924 0.412453 3.75667)
(1.64203 -0.152091 -1.55656)
(5.37929 -0.154496 -1.46278)
(7.66753 -0.105611 -0.970467)
(9.2057 -0.0713824 -0.649296)
(10.2863 -0.0489913 -0.444071)
(11.0611 -0.0343779 -0.311204)
(11.6265 -0.024727 -0.223729)
(12.0466 -0.0182283 -0.164907)
(12.3647 -0.01376 -0.124458)
(12.6541 -0.0203662 -0.10244)
(12.905 -0.0297736 -0.0901397)
(13.0382 -0.0242119 -0.0733847)
(13.146 -0.0198262 -0.0601327)
(13.2359 -0.0164153 -0.0497887)
(13.3114 -0.0137418 -0.0416777)
(13.3753 -0.0116129 -0.0352235)
(13.4298 -0.00989398 -0.0300138)
(13.4766 -0.00849105 -0.0257527)
(13.5174 -0.00727713 -0.0220949)
(13.5503 -0.00635281 -0.0191151)
(13.5893 -0.00491728 -0.0153901)
(13.902 0.202017 0.201791)
(13.3913 0.719592 0.718298)
(12.1389 1.37711 1.37357)
(8.81545 3.15785 3.14513)
(4.62532 -1.60657 -1.61526)
(7.24154 -1.19548 -1.21204)
(8.77071 -0.804031 -0.812813)
(9.86967 -0.555294 -0.559167)
(10.6937 -0.391553 -0.393365)
(11.3182 -0.281401 -0.282372)
(11.7941 -0.206282 -0.206885)
(12.1599 -0.154295 -0.154718)
(12.444 -0.117739 -0.118064)
(12.7187 -0.0970296 -0.0973134)
(12.9623 -0.0849692 -0.0852435)
(13.0829 -0.0695625 -0.0698067)
(13.1818 -0.057292 -0.057512)
(13.265 -0.0476347 -0.0478349)
(13.3354 -0.0400116 -0.0401951)
(13.3953 -0.0339128 -0.034082)
(13.4468 -0.0289679 -0.0291244)
(13.4912 -0.0249069 -0.025052)
(13.5301 -0.021417 -0.0215517)
(13.5618 -0.0185591 -0.0186843)
(13.5991 -0.0149603 -0.015078)
(13.9299 0.273262 0.1636)
(13.5842 0.907139 0.541373)
(12.8898 1.79941 0.991998)
(11.8638 4.0752 2.27836)
(11.2131 9.45541 4.83276)
(5.36177 -2.87686 -1.34652)
(9.34032 -2.18921 -1.13613)
(9.93109 -1.46833 -0.770855)
(10.4857 -1.04136 -0.550968)
(10.9939 -0.763244 -0.404381)
(11.441 -0.568754 -0.301085)
(11.8227 -0.428582 -0.226654)
(12.1418 -0.326543 -0.172571)
(12.4052 -0.251857 -0.133047)
(12.6216 -0.196926 -0.10399)
(12.8509 -0.156906 -0.0870007)
(13.0638 -0.128055 -0.0767526)
(13.1635 -0.105946 -0.0635243)
(13.2471 -0.0881731 -0.0528411)
(13.3186 -0.0739361 -0.0443146)
(13.3801 -0.0625407 -0.037498)
(13.4331 -0.0533279 -0.0319872)
(13.4791 -0.0457914 -0.0274797)
(13.5191 -0.0395425 -0.0237503)
(13.5544 -0.0341805 -0.020529)
(13.5836 -0.0295415 -0.0178759)
(13.6181 -0.0246076 -0.0145067)
(13.9636 0.290113 0.126126)
(13.7687 0.915296 0.392216)
(13.5945 1.80568 0.770806)
(13.4316 3.15952 1.21974)
(14.3646 5.23598 1.87109)
(20.2528 7.86681 2.75772)
(16.577 -5.77017 -1.97857)
(12.091 -2.73869 -0.983903)
(11.6899 -1.7548 -0.627768)
(11.6763 -1.27347 -0.455222)
(11.7934 -0.972229 -0.34801)
(11.9662 -0.760189 -0.27217)
(12.1594 -0.600026 -0.214648)
(12.353 -0.475487 -0.169919)
(12.5351 -0.378135 -0.135013)
(12.6999 -0.302221 -0.107846)
(12.8454 -0.243382 -0.0867769)
(13.019 -0.194885 -0.0742314)
(13.1907 -0.156384 -0.0664405)
(13.2666 -0.131123 -0.0557308)
(13.3323 -0.110503 -0.0469317)
(13.3898 -0.0936684 -0.0397858)
(13.4402 -0.0799612 -0.0339779)
(13.4844 -0.0687232 -0.0292189)
(13.5234 -0.0594224 -0.0252828)
(13.5578 -0.0516302 -0.0219965)
(13.5885 -0.0449063 -0.019138)
(13.6141 -0.0389804 -0.01677)
(13.645 -0.0329061 -0.0137305)
(13.9859 0.27378 0.0936482)
(13.9122 0.818325 0.275733)
(13.8919 1.47103 0.489735)
(13.9938 2.27288 0.657726)
(14.7836 2.8401 0.826956)
(16.0722 2.17362 0.64274)
(16.759 0.353673 0.0926835)
(14.7777 -1.22844 -0.370011)
(13.537 -1.33023 -0.396712)
(13.0146 -1.11273 -0.329392)
(12.814 -0.913549 -0.268242)
(12.7539 -0.757355 -0.221046)
(12.763 -0.632133 -0.183838)
(12.8102 -0.528107 -0.15324)
(12.8787 -0.440296 -0.12756)
(12.9574 -0.366288 -0.106003)
(13.0391 -0.304468 -0.0880657)
(13.1187 -0.253341 -0.0733047)
(13.1951 -0.212019 -0.0612863)
(13.3264 -0.170718 -0.0558293)
(13.3798 -0.145237 -0.0475293)
(13.4278 -0.12404 -0.0405797)
(13.4711 -0.106406 -0.0348233)
(13.51 -0.0917796 -0.0300556)
(13.5449 -0.0795978 -0.0260889)
(13.5762 -0.0693839 -0.0227672)
(13.6043 -0.0607328 -0.0199666)
(13.6299 -0.0532104 -0.0175124)
(13.6515 -0.0465081 -0.0154685)
(13.6782 -0.0396603 -0.0128079)
(13.9995 0.239712 0.0672779)
(14.0008 0.691742 0.19184)
(14.0591 1.15064 0.315896)
(14.2973 1.52553 0.413822)
(14.7402 1.58401 0.435591)
(15.1971 1.40895 0.323166)
(15.2693 0.45038 0.0985608)
(14.5149 -0.300655 -0.0969401)
(14.0098 -0.53917 -0.157559)
(13.6767 -0.59798 -0.16629)
(13.4835 -0.576245 -0.156455)
(13.3769 -0.527013 -0.141396)
(13.3237 -0.471306 -0.125592)
(13.3048 -0.416138 -0.1104)
(13.3085 -0.364002 -0.0962624)
(13.3271 -0.316075 -0.0834069)
(13.3548 -0.272984 -0.0719543)
(13.3876 -0.234991 -0.0619506)
(13.4232 -0.201586 -0.053278)
(13.459 -0.173558 -0.0459178)
(13.4933 -0.149927 -0.0396912)
(13.5258 -0.129769 -0.0343842)
(13.5562 -0.112687 -0.0298847)
(13.5843 -0.0982479 -0.0260829)
(13.6102 -0.086026 -0.0228697)
(13.6341 -0.0756421 -0.0201449)
(13.6559 -0.0667529 -0.0178261)
(13.6762 -0.0589643 -0.0157805)
(13.6937 -0.0519667 -0.0140707)
(13.7159 -0.0447596 -0.011807)
(14.0068 0.198361 0.0471176)
(14.0461 0.565278 0.132246)
(14.1348 0.904568 0.209236)
(14.3227 1.1516 0.264542)
(14.5949 1.17259 0.269695)
(14.803 0.868991 0.191692)
(14.7685 0.40327 0.0867019)
(14.5092 -0.0159883 -0.0128065)
(14.2021 -0.254675 -0.0649609)
(13.9573 -0.364412 -0.0867292)
(13.7858 -0.399895 -0.0925255)
(13.6722 -0.397073 -0.0904012)
(13.6008 -0.375788 -0.0846993)
(13.5591 -0.34616 -0.0775169)
(13.5383 -0.313353 -0.0698593)
(13.5323 -0.280194 -0.0622754)
(13.5366 -0.24834 -0.055086)
(13.5479 -0.218807 -0.0484813)
(13.5637 -0.191817 -0.0425266)
(13.5821 -0.168045 -0.037263)
(13.6017 -0.147279 -0.0326945)
(13.6214 -0.129182 -0.0287166)
(13.6408 -0.113521 -0.0252726)
(13.6595 -0.100031 -0.0223085)
(13.6773 -0.088433 -0.019765)
(13.6942 -0.0784545 -0.0175822)
(13.7101 -0.0698314 -0.01571)
(13.7253 -0.062229 -0.0140508)
(13.7387 -0.0553595 -0.0126628)
(13.7565 -0.0481809 -0.0107897)
(14.0097 0.157151 0.0325006)
(14.0636 0.450064 0.0910477)
(14.1575 0.711156 0.141643)
(14.3087 0.892133 0.175539)
(14.4947 0.912531 0.178553)
(14.6286 0.724022 0.138256)
(14.6236 0.423318 0.078392)
(14.4865 0.126743 0.0192877)
(14.297 -0.0788932 -0.0196605)
(14.1225 -0.201071 -0.0418893)
(13.9829 -0.263956 -0.0527573)
(13.8786 -0.288839 -0.056574)
(13.8042 -0.291076 -0.0563532)
(13.7531 -0.2804 -0.0539128)
(13.7197 -0.262702 -0.050295)
(13.6995 -0.241581 -0.0461332)
(13.6892 -0.219283 -0.0418192)
(13.6861 -0.197258 -0.0376004)
(13.6883 -0.176296 -0.0336134)
(13.694 -0.156879 -0.0299536)
(13.7022 -0.139389 -0.0266692)
(13.7118 -0.123793 -0.0237397)
(13.7221 -0.110012 -0.0211508)
(13.7329 -0.0979301 -0.0188824)
(13.7437 -0.0873911 -0.0169075)
(13.7545 -0.0782222 -0.0151944)
(13.765 -0.0702396 -0.0137163)
(13.7756 -0.0631781 -0.012405)
(13.7852 -0.0567875 -0.0113119)
(13.7987 -0.0499744 -0.00980673)
(14.0099 0.120167 0.0222399)
(14.0656 0.351469 0.0629576)
(14.1537 0.558721 0.0978853)
(14.2779 0.70133 0.120869)
(14.4164 0.727929 0.124242)
(14.5164 0.613427 0.102722)
(14.5307 0.412381 0.0677109)
(14.4601 0.198266 0.030758)
(14.344 0.0283201 0.00248904)
(14.2225 -0.0890043 -0.0165712)
(14.1141 -0.161656 -0.0281271)
(14.0252 -0.201163 -0.0342466)
(13.9557 -0.218256 -0.0367805)
(13.903 -0.22087 -0.0370389)
(13.8642 -0.214517 -0.0358979)
(13.8364 -0.202895 -0.0339397)
(13.8172 -0.188462 -0.0315498)
(13.8048 -0.172867 -0.0289848)
(13.7976 -0.157145 -0.026407)
(13.7944 -0.141964 -0.0239267)
(13.794 -0.127805 -0.021616)
(13.7957 -0.114842 -0.0194983)
(13.7989 -0.103143 -0.0175851)
(13.8031 -0.092708 -0.015878)
(13.8081 -0.0834834 -0.0143707)
(13.8136 -0.0753812 -0.013051)
(13.8194 -0.0682943 -0.0119082)
(13.8258 -0.062031 -0.0108987)
(13.8319 -0.0563963 -0.0100654)
(13.8414 -0.050232 -0.00889568)
(14.0085 0.0888104 0.0152068)
(14.0594 0.269685 0.0440187)
(14.1378 0.437312 0.069262)
(14.242 0.555132 0.0862396)
(14.3532 0.587221 0.0902968)
(14.4377 0.519096 0.0788409)
(14.466 0.383158 0.0577475)
(14.436 0.226894 0.0338063)
(14.3677 0.0899642 0.0133608)
(14.2857 -0.0145902 -0.00207826)
(14.2046 -0.0868876 -0.0127106)
(14.1321 -0.13233 -0.019401)
(14.0709 -0.157652 -0.0231802)
(14.0208 -0.16882 -0.0249185)
(13.9809 -0.170464 -0.0252786)
(13.9496 -0.165973 -0.0247402)
(13.9254 -0.157738 -0.0236429)
(13.9072 -0.147437 -0.022226)
(13.8937 -0.136197 -0.0206528)
(13.884 -0.124786 -0.0190374)
(13.8774 -0.113731 -0.0174601)
(13.8731 -0.103323 -0.0159645)
(13.8706 -0.093726 -0.0145778)
(13.8696 -0.0850219 -0.0133154)
(13.8697 -0.0772314 -0.0121847)
(13.8708 -0.0703367 -0.0111861)
(13.8726 -0.0643002 -0.0103208)
(13.8751 -0.0590041 -0.00956488)
(13.8781 -0.0543336 -0.00895305)
(13.884 -0.0490561 -0.0080818)
(14.0061 0.0631931 0.0104748)
(14.0492 0.202952 0.0314004)
(14.1173 0.339202 0.050487)
(14.2068 0.438169 0.0638886)
(14.3022 0.473089 0.0684103)
(14.3798 0.434629 0.0625796)
(14.4191 0.342741 0.0495924)
(14.416 0.228816 0.0336296)
(14.3808 0.120935 0.0187065)
(14.3284 0.0321414 0.00640906)
(14.2701 -0.0341915 -0.0028707)
(14.2131 -0.0797889 -0.00937589)
(14.1612 -0.108463 -0.0136169)
(14.1158 -0.124375 -0.0161342)
(14.0772 -0.131167 -0.0173995)
(14.0449 -0.131699 -0.0177815)
(14.0182 -0.128122 -0.0175617)
(13.9964 -0.12201 -0.0169503)
(13.9787 -0.114473 -0.0160996)
(13.9645 -0.106292 -0.0151206)
(13.9533 -0.0980098 -0.0140944)
(13.9445 -0.0899696 -0.0130737)
(13.9376 -0.0823872 -0.0120946)
(13.9324 -0.0753942 -0.0111812)
(13.9285 -0.0690632 -0.0103492)
(13.9258 -0.0634298 -0.00960846)
(13.9241 -0.0585173 -0.00896743)
(13.9234 -0.0542795 -0.0084192)
(13.9235 -0.0507181 -0.00799019)
(13.9259 -0.0465346 -0.00737979)
(14.0031 0.0428856 0.00731632)
(14.0375 0.148933 0.0230984)
(14.0962 0.2583 0.0382455)
(14.1753 0.340355 0.0494102)
(14.2615 0.374913 0.0541653)
(14.3368 0.355552 0.0515706)
(14.3852 0.294625 0.0434676)
(14.4014 0.212929 0.0325411)
(14.39 0.130322 0.0214621)
(14.3603 0.0581232 0.0116364)
(14.3207 0.000899215 0.00365637)
(14.2775 -0.0410062 -0.00240151)
(14.2348 -0.0694473 -0.00673594)
(14.1949 -0.0871178 -0.00965694)
(14.1589 -0.0966809 -0.0114782)
(14.1271 -0.100409 -0.0124722)
(14.0994 -0.100109 -0.0128635)
(14.0755 -0.09716 -0.0128305)
(14.0552 -0.092576 -0.0125102)
(14.0379 -0.0870859 -0.0120066)
(14.0232 -0.0812094 -0.0113987)
(14.0109 -0.0752966 -0.0107431)
(14.0006 -0.0695804 -0.0100805)
(13.992 -0.0642161 -0.00944062)
(13.9849 -0.0593068 -0.00884483)
(13.979 -0.0549249 -0.00830904)
(13.9743 -0.051145 -0.00784642)
(13.9706 -0.0479849 -0.00746437)
(13.9681 -0.0456124 -0.00718086)
(13.9672 -0.0427135 -0.00679566)
(13.9999 0.0272434 0.005163)
(14.026 0.105229 0.0176983)
(14.0773 0.189779 0.0304075)
(14.1492 0.254908 0.0401773)
(14.2304 0.286113 0.0450551)
(14.3058 0.278833 0.0443998)
(14.362 0.240385 0.0393415)
(14.3927 0.18411 0.0316696)
(14.3994 0.123667 0.0232464)
(14.3875 0.0680446 0.0152604)
(14.3634 0.021764 0.00834641)
(14.3323 -0.0138366 0.00274682)
(14.2982 -0.0393838 -0.00155418)
(14.264 -0.056433 -0.00470397)
(14.2311 -0.066791 -0.00689692)
(14.2006 -0.0721406 -0.00832722)
(14.1728 -0.0738961 -0.00916995)
(14.1479 -0.0731812 -0.0095738)
(14.1258 -0.07085 -0.00965989)
(14.1063 -0.067534 -0.00952477)
(14.0891 -0.0636918 -0.00924447)
(14.0742 -0.0596451 -0.00887671)
(14.0611 -0.0556158 -0.00846528)
(14.0498 -0.0517606 -0.00804347)
(14.0399 -0.0481934 -0.0076365)
(14.0313 -0.0450061 -0.0072649)
(14.0239 -0.0423133 -0.00694386)
(14.0176 -0.0401789 -0.00669306)
(14.0126 -0.038991 -0.00651975)
(14.0082 -0.0375542 -0.00632799)
(13.9971 0.0154332 0.00354892)
(14.0165 0.0695922 0.0142671)
(14.0623 0.129935 0.0256402)
(14.1294 0.17742 0.0346186)
(14.2079 0.202797 0.0396504)
(14.2847 0.20271 0.0402797)
(14.3477 0.180857 0.0372199)
(14.3902 0.145153 0.0317072)
(14.4115 0.10437 0.0251046)
(14.4143 0.0649695 0.0184178)
(14.4033 0.0307416 0.0122783)
(14.3829 0.00327756 0.00701464)
(14.3569 -0.0173285 0.00273103)
(14.3281 -0.0318302 -0.000607465)
(14.2987 -0.0413225 -0.00310661)
(14.27 -0.0469292 -0.00489863)
(14.2427 -0.0496533 -0.00611777)
(14.2174 -0.0503251 -0.00688754)
(14.1941 -0.0495961 -0.00731512)
(14.173 -0.0479606 -0.0074902)
(14.154 -0.0457845 -0.00748623)
(14.1369 -0.043332 -0.00736165)
(14.1216 -0.0407906 -0.0071624)
(14.1079 -0.0382982 -0.0069248)
(14.0957 -0.0359606 -0.00667679)
(14.0848 -0.0338711 -0.00644288)
(14.075 -0.032167 -0.00623825)
(14.0661 -0.0309269 -0.00609314)
(14.0588 -0.0307787 -0.00599729)
(14.0503 -0.0309069 -0.00597112)
(13.9962 0.00607727 0.0020569)
(14.0106 0.0399806 0.0123773)
(14.0518 0.0760994 0.0231803)
(14.1148 0.105442 0.0318572)
(14.1912 0.123027 0.0372518)
(14.2697 0.126362 0.0389656)
(14.3394 0.116535 0.0373934)
(14.3929 0.0975157 0.0334125)
(14.4274 0.074133 0.0280664)
(14.4438 0.0503523 0.0222388)
(14.4453 0.0288014 0.0165627)
(14.4352 0.0108364 0.0114309)
(14.4172 -0.00316607 0.00703708)
(14.3943 -0.0134438 0.00343339)
(14.3688 -0.0205357 0.000582949)
(14.3423 -0.0250744 -0.00159676)
(14.3161 -0.027665 -0.00320675)
(14.2909 -0.0288306 -0.0043501)
(14.267 -0.0289938 -0.00512275)
(14.2447 -0.0284825 -0.00560926)
(14.2242 -0.0275425 -0.00588155)
(14.2053 -0.0263564 -0.0059993)
(14.1881 -0.0250528 -0.00601072)
(14.1723 -0.0237334 -0.00595545)
(14.1579 -0.0224723 -0.00586384)
(14.1447 -0.0213428 -0.00576422)
(14.1326 -0.0204816 -0.00567143)
(14.121 -0.0198935 -0.00562201)
(14.1116 -0.020434 -0.00558357)
(14.0976 -0.0220474 -0.00570158)
(13.9984 0.00057941 0.000932532)
(14.009 0.0155418 0.0113563)
(14.0438 0.03204 0.0221807)
(14.1007 0.0470091 0.0312194)
(14.1732 0.0579692 0.0375581)
(14.2525 0.0631789 0.0407374)
(14.329 0.0622245 0.0408379)
(14.3944 0.056136 0.0384031)
(14.4441 0.0467661 0.0342264)
(14.4767 0.0359798 0.0290965)
(14.4935 0.0252586 0.0236644)
(14.4969 0.0155784 0.0184037)
(14.4899 0.0074372 0.0136132)
(14.4755 0.000973693 0.00944575)
(14.456 -0.00389814 0.0059494)
(14.4336 -0.00738651 0.00310346)
(14.4098 -0.00974412 0.000847665)
(14.3856 -0.0112197 -0.00089696)
(14.3618 -0.0120332 -0.00221417)
(14.3389 -0.0123671 -0.00318446)
(14.3171 -0.012366 -0.00388044)
(14.2966 -0.012142 -0.00436541)
(14.2774 -0.0117787 -0.00469264)
(14.2595 -0.0113404 -0.00490738)
(14.2428 -0.0108792 -0.00504543)
(14.2272 -0.0104309 -0.00514056)
(14.2127 -0.0100891 -0.00520957)
(14.1979 -0.00982682 -0.00529845)
(14.1866 -0.0100454 -0.00534331)
(14.1635 -0.0115693 -0.00557067)
(13.9144 0.0599802 0.303518)
(13.5038 0.20327 1.02944)
(12.6342 0.22226 2.0492)
(10.7504 0.267148 4.53641)
(1.32115 -0.0269579 -0.781739)
(8.26315 -0.158102 -2.70993)
(9.20296 -0.100436 -1.74459)
(9.97527 -0.0697052 -1.20164)
(10.6386 -0.0501141 -0.860557)
(11.1945 -0.036643 -0.628654)
(11.6507 -0.0271537 -0.465878)
(12.0202 -0.0204038 -0.350174)
(12.3177 -0.0155623 -0.267182)
(12.5573 -0.0120615 -0.207138)
(12.7968 -0.0181447 -0.164996)
(13.0147 -0.0267123 -0.135336)
(13.1243 -0.0219738 -0.111451)
(13.2151 -0.0181814 -0.0923534)
(13.2922 -0.015186 -0.0771594)
(13.358 -0.0128064 -0.0650701)
(13.4144 -0.0108909 -0.0553421)
(13.4631 -0.00933029 -0.0474155)
(13.5052 -0.00804677 -0.0408658)
(13.5423 -0.00693082 -0.035255)