/*--------------------------------*- C++ -*----------------------------------*\
  =========                 |
  \\      /  F ield         | OpenFOAM: The Open Source CFD Toolbox
   \\    /   O peration     | Website:  https://openfoam.org
    \\  /    A nd           | Version:  10
     \\/     M anipulation  |
\*---------------------------------------------------------------------------*/
FoamFile
{
    format      ascii;
    class       volScalarField;
    location    "800";
    object      k;
}
// * * * * * * * * * * * * * * * * * * * * * * * * * * * * * * * * * * * * * //

dimensions      [0 2 -2 0 0 0 0];

internalField   nonuniform List<scalar> 
27507
(
348.951
348.721
350.108
309.541
25.2024
46.8049
63.5781
76.5711
85.8704
91.8654
95.2215
96.6083
96.5866
95.4944
93.4733
91.0463
88.408
85.6504
82.8402
80.0248
77.2374
74.5039
71.8508
69.3452
67.3084
348.691
347.418
348.322
324.498
31.322
58.2429
75.4522
86.3879
93.2315
97.1837
99.0298
99.3461
98.5636
97.1375
94.9222
92.1239
89.2092
86.2423
83.2711
80.3305
77.4454
74.6351
71.9216
69.3679
67.2955
348.215
345.457
344.766
335.264
5.04809
64.8979
90.1445
101.451
106.42
108.23
108.265
107.183
105.352
103.001
100.465
97.4068
93.992
90.6043
87.2713
84.0149
80.8509
77.7901
74.8412
72.0177
69.3765
67.2377
347.642
343.226
338.262
332.032
298.558
28.8876
24.8351
114.9
128.229
131.444
130.8
128.233
124.733
120.816
116.74
112.625
108.533
104.558
100.31
96.192
92.2474
88.4735
84.8677
81.4266
78.1454
75.021
72.0575
69.3031
67.0762
347.069
341.117
334.323
324.287
311.066
278.474
230.798
208.695
191.087
177.337
166.083
156.38
147.698
139.784
132.518
125.822
119.631
113.892
108.548
103.045
98.2584
93.7692
89.5555
85.595
81.8681
78.3573
75.0487
71.9366
69.0601
66.7329
346.557
339.349
331.199
320.671
305.776
289.513
264.121
237.985
217.951
200.414
185.191
171.903
160.188
149.761
140.412
131.98
124.34
117.392
111.067
105.193
99.8136
94.8486
90.2474
85.9717
81.9883
78.2691
74.7913
71.5419
68.5499
66.1193
346.125
337.882
328.631
317.502
303.481
286.057
266.523
246.2
227.041
209.477
193.618
179.393
166.647
155.208
144.916
135.631
127.231
119.614
112.69
106.351
100.551
95.2291
90.3293
85.8054
81.6177
77.7316
74.1187
70.7595
67.672
65.1422
345.765
336.621
326.384
314.547
300.614
284.45
266.683
248.229
230.162
213.078
197.26
182.788
169.635
157.719
146.934
137.171
128.324
120.299
113.005
106.354
100.279
94.7199
89.6195
84.9286
80.604
76.6074
72.9066
69.4773
66.3257
63.7058
345.46
335.447
324.174
311.428
297.07
281.167
264.153
246.646
229.352
212.78
197.225
182.827
169.612
157.55
146.575
136.606
127.553
119.331
111.855
105.045
98.8334
93.1572
87.9596
83.1905
78.8053
74.7638
71.0318
67.5817
64.4075
61.7102
345.192
334.216
321.668
307.671
292.418
276.15
259.236
242.132
225.315
209.169
193.946
179.785
166.723
154.745
143.812
133.858
124.804
116.572
109.084
102.266
96.0515
90.3781
85.1895
80.4361
76.0731
72.0599
68.3616
64.9481
61.8036
59.045
344.946
332.719
318.381
302.58
285.912
268.791
251.554
234.518
217.99
202.225
187.396
173.603
160.864
149.17
138.483
128.743
119.879
111.817
104.483
97.8088
91.7281
86.1818
81.1149
76.4785
72.2288
68.3255
64.7346
61.4237
58.3757
55.5766
344.703
330.559
313.415
294.929
276.231
257.857
240.051
222.952
206.689
191.368
177.066
163.815
151.606
140.415
130.196
120.887
112.418
104.718
97.719
91.3531
85.5585
80.2783
75.4595
71.0552
67.0235
63.3249
59.9281
56.7957
53.9323
51.1227
344.435
326.761
304.764
282.236
260.847
241.006
222.662
205.654
189.884
175.276
161.792
149.388
138.02
127.635
118.173
109.568
101.752
94.654
88.2098
82.3556
77.0333
72.1893
67.7741
63.7438
60.0595
56.6824
53.5895
50.7255
48.1681
45.3991
343.978
318.202
287.12
258.793
234.437
213.538
195.291
179.077
164.489
151.242
139.183
128.194
118.19
109.094
100.834
93.3415
86.5506
80.397
74.8201
69.7627
65.1723
61.0013
57.2053
53.745
50.5875
47.6928
45.0597
42.5786
40.5017
37.8757
341.91
291.591
243.99
209.624
184.199
164.606
148.655
135.164
123.421
112.988
103.625
95.1787
87.5466
80.6382
74.384
68.7285
63.6176
58.9996
54.8257
51.0505
47.6316
44.5324
41.7168
39.1547
36.8243
34.6757
32.7698
30.854
29.518
27.285
317.06
174.865
118.163
91.1685
75.6737
65.5792
58.2051
52.3739
47.5082
43.299
39.5831
36.2666
33.29
30.6179
28.2137
26.0451
24.0877
22.3204
20.7243
19.2811
17.9766
16.7918
15.7233
14.7373
13.8696
13.0183
12.3509
11.5397
11.1428
10.1564
348.69
347.416
348.306
323.92
30.5719
57.9034
75.3027
86.3196
93.1982
97.1664
99.0201
99.3402
98.56
97.1347
94.92
92.1222
89.2079
86.2413
83.2703
80.3299
77.4448
74.6347
71.9212
69.3676
67.2952
348.448
346.36
346.707
331.039
41.8611
70.6307
86.2759
94.8991
99.6055
101.858
102.437
101.835
100.389
98.6493
96.2475
93.118
89.9521
86.7922
83.6713
80.6138
77.6368
74.7542
71.9833
69.384
67.2774
348.009
344.658
343.497
333.227
128.06
17.9141
82.5215
101.953
109.859
112.649
112.909
111.785
109.835
107.351
104.509
101.733
98.5233
94.8386
91.242
87.7454
84.36
81.0939
77.9519
74.9385
72.0635
69.3807
67.2105
347.482
342.632
337.143
331.329
305.461
95.4733
67.8244
134.688
139.599
138.992
136.203
132.29
127.855
123.244
118.633
114.1
109.68
105.546
101.184
96.8637
92.7576
88.854
85.1438
81.6185
78.2693
75.0901
72.0823
69.2919
67.037
346.953
340.724
333.718
327.395
311.553
283.137
241.595
217.571
197.857
182.644
170.266
159.707
150.37
141.946
134.271
127.24
120.773
114.805
109.273
103.689
98.7596
94.1518
89.84
85.7987
82.0054
78.4403
75.0871
71.9385
69.0317
66.6803
346.476
339.082
330.755
320.079
305.581
290.13
265.934
240.49
220.561
202.901
187.448
173.892
161.91
151.233
141.657
133.023
125.204
118.099
111.636
105.645
100.166
95.1163
90.4437
86.1077
82.0738
78.3124
74.7996
71.5211
68.5045
66.0536
346.069
337.701
328.33
317.131
303.235
286.165
267.083
247.171
228.223
210.723
194.834
180.524
167.669
156.11
145.698
136.299
127.793
120.079
113.067
106.65
100.782
95.4012
90.4503
85.8824
81.6572
77.7395
74.0998
70.7181
67.6113
65.0647
345.726
336.496
326.176
314.292
300.401
284.389
266.837
248.605
230.696
213.697
197.906
183.421
170.228
158.257
147.41
137.582
128.673
120.587
113.238
106.535
100.415
94.8153
89.6791
84.957
80.6054
76.5857
72.865
69.4189
66.2526
63.6189
345.433
335.359
324.026
311.239
296.888
281.05
264.142
246.756
229.565
213.062
197.543
183.156
169.932
157.847
146.843
136.839
127.75
119.492
111.981
105.139
98.8972
93.1939
87.972
83.1813
78.7771
74.7191
70.9729
67.5106
64.3255
61.6171
345.174
334.153
321.558
307.523
292.258
276.013
259.15
242.111
225.357
209.261
194.071
179.927
166.869
154.886
143.94
133.969
124.895
116.643
109.134
102.297
96.0632
90.3722
85.1677
80.3998
76.024
71.9994
68.2912
64.8692
61.717
58.9497
344.933
332.673
318.296
302.459
285.769
268.647
251.43
234.428
217.938
202.207
187.403
173.628
160.899
149.208
138.519
128.773
119.9
111.827
104.483
97.7966
91.7048
86.1478
81.0709
76.4253
72.1672
68.2565
64.6589
61.3422
58.2892
55.4832
344.695
330.526
313.348
294.828
276.101
257.712
239.909
222.824
206.583
191.285
177.004
163.769
151.573
140.39
130.174
120.865
112.394
104.691
97.6872
91.3158
85.5154
80.2292
75.4047
70.9949
66.958
63.2547
59.8536
56.7174
53.8509
51.0362
344.43
326.737
304.711
282.148
260.728
240.864
222.512
205.508
189.75
175.158
161.691
149.304
137.949
127.575
118.12
109.52
101.706
94.6092
88.1644
82.3086
76.984
72.1373
67.7192
63.6858
59.9985
56.6186
53.5229
50.6565
48.0971
45.3246
343.975
318.186
287.078
258.717
234.326
213.402
195.141
178.926
164.346
151.112
139.068
128.096
118.106
109.022
100.772
93.2872
86.5017
80.3516
74.7766
69.7199
65.1294
60.9576
57.1603
53.6985
50.5393
47.6428
45.0078
42.5252
40.4464
37.8193
341.909
291.581
243.955
209.558
184.101
164.485
148.52
135.028
123.291
112.87
103.522
95.0912
87.4731
80.5776
74.3343
68.6873
63.5827
58.9693
54.7984
51.0249
47.6068
44.5075
41.6914
39.1283
36.7968
34.647
32.7395
30.8231
29.4836
27.2535
317.06
174.86
118.143
91.1338
75.6247
65.5204
58.1409
52.3095
47.4477
43.2448
39.5365
36.228
33.2588
30.5926
28.1935
26.0291
24.075
22.3102
20.7158
19.2738
17.9699
16.7854
15.717
14.7307
13.8628
13.0107
12.3431
11.5316
11.1326
10.1507
348.214
345.454
344.749
335.142
4.64508
64.0689
89.7561
101.241
106.303
108.163
108.225
107.158
105.336
102.991
100.458
97.401
93.9876
90.6009
87.2686
84.0127
80.8491
77.7886
74.84
72.0167
69.3756
67.2369
348.008
344.656
343.495
333.346
96.5983
20.1561
82.5087
101.809
109.753
112.584
112.869
111.761
109.819
107.34
104.502
101.728
98.5198
94.8359
91.2399
87.7437
84.3586
81.0927
77.951
74.9377
72.0628
69.3802
67.21
347.644
343.271
340.982
332.721
292.335
104.217
122.138
127.263
127.731
125.912
122.961
119.463
115.708
111.842
107.941
104.332
100.44
96.3025
92.3458
88.5625
84.9486
81.5001
78.2124
75.0823
72.1136
69.3551
67.1263
347.197
341.599
335.275
329.481
310.442
262.031
195.036
177.85
170.229
162.119
154.726
147.806
141.158
134.77
128.684
122.919
117.471
112.322
107.58
102.69
98.0246
93.6372
89.5046
85.6084
81.9321
78.4606
75.1823
72.0941
69.2377
66.9306
346.743
340.007
332.421
322.182
311.352
287.628
257.776
230.963
209.558
192.397
178.252
166.218
155.687
146.296
137.828
130.138
123.119
116.69
110.773
104.801
99.6219
94.8047
90.3184
86.1325
82.22
78.5567
75.1228
71.9078
68.9458
66.5492
346.328
338.594
329.924
319.181
304.958
286.575
265.583
244.37
224.666
206.927
191.18
177.234
164.835
153.753
143.799
134.822
126.696
119.319
112.614
106.418
100.763
95.563
90.7626
86.3184
82.1935
78.3559
74.7797
71.4485
68.3872
65.8981
345.965
337.366
327.771
316.473
302.719
286.216
267.781
248.661
230.111
212.764
196.861
182.435
169.408
157.653
147.04
137.445
128.754
120.87
113.704
107.15
101.161
95.6741
90.6315
85.9848
81.6923
77.7175
74.0298
70.6075
67.4658
64.8875
345.653
336.262
325.785
313.808
299.967
284.199
266.995
249.155
231.531
214.697
198.969
184.473
171.22
159.16
148.208
138.271
129.252
121.061
113.613
106.821
100.62
94.9477
89.7478
84.97
80.5702
76.509
72.753
69.2768
66.0841
63.4246
345.382
335.192
323.74
310.869
296.513
280.776
264.042
246.869
229.859
213.483
198.035
183.673
170.441
158.321
147.267
137.205
128.054
119.733
112.162
105.264
98.9693
93.2183
87.9535
83.1248
78.6872
74.6003
70.829
67.3452
64.141
61.412
345.139
334.031
321.342
307.227
291.926
275.708
258.926
241.998
225.355
209.349
194.22
180.11
167.064
155.075
144.111
134.112
125.007
116.72
109.177
102.305
96.0394
90.3183
85.0863
80.2936
75.8957
71.8517
68.1265
64.6899
61.5247
58.7411
344.909
332.583
318.128
302.214
285.47
268.335
251.144
234.195
217.77
202.099
187.344
173.602
160.895
149.212
138.522
128.768
119.882
111.793
104.431
97.7271
91.6172
86.0428
80.9494
76.2886
72.0168
68.0939
64.4855
61.1593
58.0981
55.2797
344.679
330.459
313.214
294.62
275.829
257.403
239.592
222.528
206.321
191.064
176.82
163.617
151.445
140.279
130.073
120.768
112.297
104.59
97.5804
91.2015
85.3928
80.098
75.2648
70.8468
66.8021
63.0916
59.6841
56.5422
53.6712
50.8472
344.419
326.689
304.604
281.969
260.479
240.564
222.186
205.183
189.442
174.878
161.442
149.085
137.757
127.404
117.966
109.378
101.571
94.4789
88.0358
82.1796
76.8531
72.0036
67.5821
63.5449
59.8537
56.47
53.3709
50.5011
47.9395
45.1607
343.969
318.154
286.992
258.561
234.099
213.119
194.825
178.601
164.029
150.817
138.802
127.859
117.897
108.838
100.608
93.1403
86.3672
80.2261
74.6572
69.6043
65.0157
60.8444
57.0466
53.5836
50.4228
47.5243
44.8874
42.4028
40.3217
37.6931
341.907
291.561
243.887
209.427
183.906
164.239
148.244
134.743
123.014
112.612
103.291
94.8884
87.297
80.4267
74.2051
68.5758
63.4851
58.8821
54.7186
50.9502
47.5351
44.4375
41.6218
39.0584
36.726
34.5748
32.6655
30.7494
29.4005
27.1838
317.06
174.85
118.107
91.0699
75.5326
65.4073
58.0151
52.1808
47.3238
43.1311
39.4362
36.1418
33.1863
30.5314
28.1423
25.9864
24.0391
22.2796
20.6892
19.25
17.948
16.7646
15.6968
14.7107
13.8423
12.9912
12.3174
11.5271
11.0427
10.1909
347.642
343.221
338.242
332.011
298.878
22.1675
114.815
128.055
131.253
130.651
128.13
124.663
120.769
116.707
112.602
108.517
104.545
100.301
96.1848
92.2416
88.4689
84.8639
81.4235
78.1429
75.0188
72.0556
69.3015
67.0747
347.482
342.629
337.134
331.335
305.705
99.3427
58.1075
134.546
139.484
138.871
136.101
132.215
127.802
123.208
118.607
114.082
109.667
105.536
101.177
96.858
92.7531
88.8503
85.1408
81.616
78.2673
75.0883
72.0809
69.2906
67.0358
347.197
341.598
335.273
329.493
310.498
262.273
195.638
177.792
170.136
162.065
154.683
147.768
141.127
134.747
128.667
122.906
117.461
112.315
107.575
102.686
98.0217
93.6348
89.5026
85.6068
81.9307
78.4594
75.1813
72.0932
69.237
66.9299
346.845
340.361
333.058
322.974
311.612
285.583
250.723
221.231
200.537
184.708
171.974
161.208
151.738
143.21
135.444
128.329
121.784
115.741
110.134
104.457
99.3806
94.6517
90.2374
86.11
82.2443
78.6182
75.2142
72.0234
69.0819
66.7049
346.48
339.119
330.867
320.41
305.919
290.643
266.459
242.271
220.932
202.73
187.21
173.804
162.044
151.59
142.211
133.743
126.059
119.063
112.664
106.095
100.611
95.5365
90.8336
86.467
82.4046
78.6171
75.0808
71.7815
68.7483
66.291
346.136
337.968
328.86
317.933
304.15
287.042
267.724
247.836
228.776
211.198
195.288
180.998
168.181
156.663
146.287
136.916
128.43
120.73
113.736
107.29
101.42
96.0336
91.0738
86.4938
82.2545
78.321
74.6648
71.2669
68.1483
65.6079
345.828
336.922
327.024
315.564
301.962
286.034
268.393
250.06
232.03
214.937
199.087
184.575
171.377
159.41
148.57
138.747
129.838
121.751
114.397
107.676
101.538
95.9205
90.764
86.0191
81.6427
77.5966
73.8488
70.3759
67.1899
64.569
345.556
335.942
325.241
313.118
299.303
283.785
266.983
249.582
232.309
215.699
200.075
185.592
172.288
160.134
149.066
139.002
129.855
121.539
113.972
107.071
100.771
95.0111
89.7332
84.8871
80.4281
76.3161
72.5169
69.0039
65.7784
63.0845
345.313
334.957
323.33
310.322
295.926
280.278
263.736
246.805
230.016
213.804
198.457
184.14
170.909
158.759
147.652
137.526
128.305
119.912
112.27
105.305
98.9482
93.1404
87.8246
82.9506
78.4733
74.3519
70.5512
67.0421
63.8152
61.0589
345.089
333.856
321.022
306.777
291.399
275.183
258.477
241.671
225.159
209.266
194.22
180.16
167.138
155.151
144.172
134.147
125.009
116.685
109.104
102.195
95.893
90.1383
84.8753
80.0547
75.632
71.5663
67.8225
64.3698
61.1902
58.3856
344.874
332.451
317.873
301.833
284.99
267.808
250.624
233.725
217.371
201.774
187.082
173.388
160.714
149.05
138.367
128.611
119.717
111.615
104.237
97.5162
91.3887
85.7972
80.6875
76.0117
71.7263
67.7912
64.1723
60.8371
57.7683
54.9342
344.655
330.36
313.009
294.292
275.39
256.886
239.042
221.984
205.811
190.6
176.404
163.245
151.111
139.973
129.788
120.496
112.032
104.328
97.3177
90.9358
85.1225
79.822
74.9829
70.5588
66.5084
62.7926
59.3805
56.2344
53.3609
50.5258
344.404
326.616
304.438
281.685
260.077
240.07
221.635
204.613
188.883
174.349
160.953
148.636
137.348
127.03
117.621
109.055
101.266
94.1867
87.7527
81.9025
76.5797
71.7321
67.3112
63.2738
59.582
56.1973
53.0973
50.226
47.6657
44.8793
343.961
318.104
286.86
258.317
233.739
212.662
194.302
178.05
163.479
150.29
138.31
127.408
117.486
108.465
100.268
92.8282
86.0782
79.9556
74.401
69.359
64.7784
60.6129
56.8192
53.3589
50.1999
47.3023
44.6666
42.1811
40.1034
37.4693
341.905
291.531
243.784
209.228
183.606
163.856
147.803
134.278
122.55
112.17
102.881
94.5164
86.9627
80.1295
73.941
68.3402
63.273
58.6888
54.54
50.7828
47.3761
44.2846
41.4732
38.9125
36.5821
34.4315
32.5239
30.6055
29.261
27.039
317.059
174.837
118.056
90.9774
75.3973
65.2382
57.8232
51.98
47.1255
42.9439
39.2654
35.9896
33.0528
30.4142
28.04
25.897
23.9606
22.21
20.6267
19.193
17.8951
16.7147
15.6491
14.6642
13.7973
12.9458
12.274
11.4804
11.0008
10.144
347.069
341.125
334.394
328.076
311.387
278.862
229.943
208.573
191.027
177.262
165.995
156.297
147.628
139.73
132.476
125.79
119.606
113.872
108.533
103.033
98.2489
93.7615
89.5491
85.5897
81.8636
78.3536
75.0455
71.9339
69.0577
66.7307
346.953
340.725
333.718
327.462
311.642
283.218
241.347
217.339
197.795
182.583
170.199
159.643
150.315
141.902
134.236
127.213
120.752
114.789
109.26
103.679
98.7515
94.1452
89.8345
85.7941
82.0016
78.4371
75.0843
71.9361
69.0296
66.6784
346.744
340.007
332.42
322.187
311.377
287.644
257.788
230.955
209.528
192.363
178.216
166.182
155.655
146.269
137.806
130.12
123.105
116.679
110.764
104.795
99.6163
94.8001
90.3145
86.1292
82.2172
78.5544
75.1207
71.9061
68.9442
66.5478
346.48
339.119
330.867
320.411
305.923
290.646
266.461
242.271
220.924
202.719
187.197
173.791
162.031
151.579
142.202
133.735
126.053
119.058
112.66
106.092
100.609
95.5342
90.8317
86.4653
82.4031
78.6159
75.0798
71.7805
68.7475
66.2903
346.199
338.187
329.255
318.471
304.746
291.699
271.15
249.689
229.428
211.168
194.99
180.683
167.979
156.633
146.443
137.253
128.934
121.381
114.507
107.249
101.46
96.1215
91.1958
86.6428
82.4247
78.5078
74.8645
71.4766
68.3674
65.8404
345.926
337.279
327.685
316.488
302.986
286.846
268.902
250.239
231.954
214.715
198.817
184.324
171.189
159.304
148.552
138.816
129.988
121.974
114.695
108.003
101.914
96.3386
91.2153
86.4959
82.1386
78.1061
74.3673
70.9004
67.7215
65.1219
345.673
336.411
326.153
314.457
300.92
285.443
268.505
250.893
233.408
216.635
200.909
186.375
173.059
160.917
149.874
139.841
130.726
122.44
114.902
108.015
101.73
95.981
90.7097
85.8655
81.4041
77.2859
73.4775
69.9537
66.7222
64.0525
345.442
335.559
324.576
312.237
298.375
283.034
266.581
249.589
232.669
216.308
200.823
186.388
173.063
160.839
149.672
139.495
130.23
121.797
114.117
107.112
100.716
94.8703
89.516
84.6031
80.0864
75.9251
72.0842
68.5361
65.2785
62.5453
345.229
334.665
322.806
309.594
295.089
279.469
263.076
246.358
229.786
213.749
198.522
184.271
171.063
158.901
147.758
137.581
128.301
119.845
112.141
105.115
98.7023
92.8429
87.4805
82.5653
78.0521
73.8998
70.0731
66.5421
63.2948
60.5078
345.028
333.63
320.598
306.157
290.634
274.36
257.684
240.973
224.58
208.801
193.849
179.855
166.875
154.906
143.928
133.892
124.734
116.385
108.776
101.839
95.5091
89.7281
84.441
79.5987
75.157
71.075
67.3175
63.8535
60.6636
57.8361
344.829
332.275
317.524
301.294
284.285
266.993
249.768
232.888
216.589
201.061
186.439
172.805
160.179
148.551
137.891
128.149
119.261
111.159
103.778
97.0514
90.9168
85.3175
80.2002
75.5171
71.2253
67.2849
63.6617
60.3232
57.2522
54.4023
344.624
330.224
312.72
293.82
274.739
256.096
238.168
221.081
204.922
189.75
175.606
162.5
150.417
139.324
129.176
119.914
111.473
103.787
96.79
90.4179
84.6116
79.3163
74.481
70.0598
66.0119
62.2984
58.8886
55.7446
52.8753
50.0302
344.384
326.516
304.202
281.274
259.484
239.321
220.78
203.704
187.964
173.451
160.094
147.828
136.592
126.324
116.96
108.434
100.679
93.6282
87.2178
81.3871
76.0803
71.2458
66.8358
62.8075
59.1236
55.7456
52.652
49.7855
47.2336
44.4417
343.95
318.035
286.671
257.965
233.213
211.983
193.512
177.199
162.607
149.432
137.488
126.633
116.764
107.794
99.647
92.2511
85.5398
79.4505
73.9241
68.9058
64.345
60.1959
56.4159
52.967
49.8178
46.9283
44.3006
41.8194
39.7532
37.1144
341.901
291.49
243.643
208.952
183.184
163.306
147.16
133.584
121.841
111.474
102.219
93.898
86.3916
79.6072
73.4649
67.9056
62.8746
58.3214
54.1986
50.4629
47.0739
43.9968
41.1973
38.6461
36.324
34.1791
32.2792
30.3603
29.0331
26.7948
317.059
174.82
117.992
90.8571
75.2177
65.0087
57.557
51.6943
46.8356
42.6622
38.9999
35.7449
32.8305
30.2127
27.8582
25.7332
23.8127
22.0757
20.5038
19.0797
17.7896
16.6155
15.5551
14.5741
13.711
12.8606
12.1964
11.3838
10.9878
10.0022
346.558
339.351
331.204
320.563
305.806
289.545
264.094
237.979
217.931
200.379
185.148
171.857
160.145
149.723
140.379
131.952
124.316
117.373
111.051
105.18
99.8025
94.8393
90.2396
85.965
81.9827
78.2642
74.7871
71.5383
68.5467
66.1164
346.476
339.083
330.754
320.061
305.592
290.15
265.918
240.491
220.546
202.873
187.413
173.855
161.874
151.201
141.629
132.999
125.184
118.083
111.622
105.634
100.156
95.108
90.4366
86.1017
82.0687
78.308
74.7958
71.5178
68.5016
66.0509
346.328
338.595
329.923
319.179
304.963
286.58
265.586
244.369
224.656
206.909
191.157
177.21
164.811
153.73
143.779
134.804
126.681
119.306
112.603
106.409
100.755
95.5564
90.7571
86.3137
82.1894
78.3523
74.7766
71.4458
68.3848
65.8959
346.136
337.968
328.86
317.933
304.152
287.044
267.725
247.834
228.77
211.189
195.276
180.985
168.167
156.65
146.275
136.906
128.421
120.722
113.729
107.285
101.414
96.0292
91.0701
86.4906
82.2517
78.3186
74.6627
71.265
68.1467
65.6063
345.926
337.279
327.685
316.488
302.987
286.847
268.902
250.239
231.952
214.712
198.812
184.319
171.183
159.299
148.547
138.811
129.984
121.97
114.692
108
101.912
96.3366
91.2135
86.4944
82.1372
78.1049
74.3663
70.8995
67.7207
65.1212
345.715
336.573
326.462
314.907
301.457
285.969
268.969
251.269
233.702
216.87
201.111
186.565
173.251
161.12
150.093
140.076
130.976
122.706
115.183
108.303
102.026
96.2842
91.018
86.1768
81.7167
77.5982
73.7882
70.2621
67.0297
64.3687
345.512
335.862
325.187
313.166
299.551
284.333
267.896
250.851
233.849
217.405
201.852
187.365
174.002
161.754
150.57
140.379
131.103
122.66
114.972
107.953
101.545
95.6868
90.3193
85.3921
80.8601
76.6826
72.8251
69.2604
65.9908
63.2705
345.32
335.128
323.797
311.152
297.129
281.835
265.604
248.923
232.305
216.182
200.855
186.5
173.196
160.947
149.723
139.472
130.124
121.605
113.841
106.757
100.289
94.3766
88.9639
84
79.4398
75.242
71.3712
67.7984
64.5171
61.7438
345.136
334.322
322.163
308.657
293.94
278.242
261.901
245.324
228.923
213.046
197.946
183.78
170.622
158.481
147.334
137.137
127.828
119.338
111.596
104.533
98.0855
92.1938
86.8024
81.8618
77.3272
73.1573
69.3166
65.7747
62.5164
59.6992
344.957
333.354
320.057
305.332
289.564
273.135
256.406
239.725
223.412
207.73
192.872
178.958
166.04
154.116
143.166
133.147
123.996
115.648
108.036
101.093
94.7567
88.9688
83.6753
78.8276
74.3817
70.297
66.5384
63.0746
59.8846
57.0361
344.776
332.052
317.064
300.558
283.285
265.79
248.445
231.523
215.241
199.766
185.211
171.647
159.087
147.517
136.907
127.205
118.349
110.274
102.913
96.2032
90.0825
84.4949
79.3879
74.7142
70.4312
66.4993
62.8848
59.5548
56.4928
53.6302
344.584
330.047
312.329
293.161
273.808
254.934
236.846
219.673
203.49
188.341
174.245
161.201
149.185
138.158
128.072
118.865
110.473
102.83
95.8696
89.5295
83.7513
78.4806
73.667
69.2653
65.2351
61.5378
58.1433
55.0132
52.1596
49.3096
344.358
326.38
303.875
280.692
258.631
238.229
219.508
202.324
186.538
172.029
158.709
146.499
135.33
125.132
115.837
107.375
99.6784
92.6798
86.3159
80.5263
75.2556
70.453
66.0713
62.0681
58.4067
55.049
51.9742
49.1237
46.5915
43.8012
343.935
317.941
286.409
257.471
232.466
211.006
192.36
175.935
161.291
148.114
136.201
125.4
115.596
106.696
98.6183
91.2885
84.6381
78.6037
73.1263
68.1512
63.6284
59.5127
55.7622
52.3391
49.2131
46.3437
43.7352
41.2686
39.2225
36.5901
341.896
291.435
243.453
208.577
182.604
162.542
146.253
132.587
120.802
110.435
101.208
92.9347
85.485
78.7626
72.6821
67.1811
62.2036
57.6981
53.6173
49.9183
46.5612
43.5117
40.7362
38.2056
35.9021
33.7722
31.888
29.9787
28.6669
26.4369
317.059
174.801
117.913
90.7061
74.9869
64.707
57.1995
51.3018
46.4276
42.2556
38.6068
35.373
32.4838
29.8913
27.562
25.4611
23.5627
21.8455
20.2912
18.8823
17.6054
16.4425
15.3921
14.4191
13.5637
12.719
12.0605
11.253
10.8608
9.87806
346.125
337.881
328.625
317.461
303.477
286.057
266.519
246.194
227.026
209.454
193.588
179.36
166.614
155.177
144.887
135.605
127.209
119.595
112.674
106.337
100.539
95.2187
90.3204
85.7977
81.611
77.7258
74.1137
70.7551
67.6681
65.1386
346.069
337.7
328.326
317.115
303.233
286.165
267.081
247.166
228.211
210.703
194.808
180.496
167.64
156.083
145.673
136.277
127.774
120.062
113.053
106.637
100.771
95.3918
90.4421
85.8753
81.6511
77.7341
74.0952
70.714
67.6077
65.0613
345.965
337.366
327.769
316.468
302.718
286.216
267.779
248.657
230.102
212.75
196.843
182.414
169.386
157.632
147.02
137.427
128.739
120.856
113.692
107.139
101.152
95.6663
90.6247
85.9788
81.6872
77.713
74.0258
70.604
67.4626
64.8846
345.828
336.922
327.024
315.563
301.962
286.034
268.392
250.057
232.024
214.928
199.075
184.561
171.363
159.396
148.556
138.735
129.827
121.741
114.389
107.668
101.531
95.9146
90.7588
86.0146
81.6388
77.5932
73.8457
70.3732
67.1874
64.5668
345.673
336.411
326.152
314.456
300.92
285.442
268.504
250.891
233.405
216.63
200.903
186.368
173.051
160.909
149.867
139.834
130.719
122.434
114.897
108.011
101.726
95.9773
90.7064
85.8626
81.4015
77.2836
73.4755
69.9519
66.7206
64.051
345.512
335.862
325.187
313.165
299.551
284.333
267.896
250.85
233.848
217.403
201.849
187.362
173.999
161.75
150.566
140.376
131.1
122.657
114.969
107.951
101.543
95.6851
90.3177
85.3907
80.8588
76.6815
72.8241
69.2595
65.99
63.2698
345.351
335.279
324.118
311.653
297.785
282.592
266.41
249.736
233.101
216.949
201.588
187.201
173.867
161.592
150.345
140.072
130.704
122.166
114.385
107.284
100.799
94.8719
89.444
84.4655
79.891
75.6792
71.7947
68.2089
64.9175
62.1491
345.192
334.647
322.886
309.815
295.478
280.055
263.876
247.365
230.962
215.04
199.872
185.627
172.389
160.169
148.946
138.677
129.3
120.745
112.944
105.824
99.3228
93.3804
87.9412
82.9553
78.3777
74.167
70.2875
66.7092
63.4203
60.6098
345.036
333.922
321.374
307.454
292.383
276.459
260.035
243.491
227.19
211.439
196.461
182.4
169.325
157.244
146.138
135.968
126.676
118.194
110.456
103.395
96.9481
91.0565
85.6659
80.7272
76.1958
72.031
68.1969
64.6629
61.41
58.5664
344.877
333.018
319.367
304.235
288.088
271.369
254.468
237.726
221.432
205.818
191.049
177.228
164.398
152.553
141.671
131.709
122.606
114.299
106.722
99.8087
93.4987
87.7346
82.463
77.636
73.2098
69.1445
65.405
61.9598
58.7867
55.9221
344.713
331.771
316.455
299.552
281.884
264.058
246.484
229.438
213.12
197.669
183.178
169.696
157.225
145.745
135.219
125.594
116.809
108.797
101.493
94.8337
88.7586
83.2124
78.143
73.504
69.2531
65.3512
61.7651
58.4617
55.426
52.5573
344.537
329.815
311.795
292.242
272.487
253.261
234.91
217.575
201.321
186.168
172.116
159.145
147.218
136.287
126.295
117.18
108.873
101.307
94.4184
88.1429
82.4232
77.2055
72.4402
68.0824
64.0924
60.4321
57.0721
53.9732
51.1528
48.3063
344.324
326.198
303.418
279.868
257.414
236.657
217.663
200.3
184.423
169.895
156.607
144.465
133.384
123.283
114.088
105.723
98.1186
91.2057
84.9204
79.2024
73.9967
69.2528
64.9243
60.9693
57.3517
54.0338
50.9961
48.1776
45.6821
42.9038
343.915
317.811
286.04
256.769
231.402
209.613
190.707
174.109
159.372
146.172
134.286
123.547
113.826
105.02
97.0396
89.8053
83.2458
77.2959
71.8961
66.9916
62.5325
58.4741
54.7752
51.3986
48.3146
45.4827
42.9099
40.4717
38.4609
35.8468
341.889
291.36
243.191
208.057
181.8
161.476
144.98
131.175
119.316
108.931
99.7279
91.5067
84.1262
77.4828
71.4844
66.064
61.1625
56.7274
52.7106
49.0692
45.7636
42.76
40.0255
37.5312
35.2609
33.159
31.3036
29.4142
28.1285
25.9192
317.058
174.778
117.815
90.5132
74.6864
64.3075
56.7194
50.7667
45.8623
41.6827
38.0434
34.8307
31.9699
29.4083
27.111
25.0417
23.1736
21.4845
19.9558
18.5699
17.3137
16.1689
15.135
14.1759
13.3339
12.4996
11.852
11.0535
10.6678
9.69602
345.765
336.619
326.378
314.529
300.605
284.444
266.677
248.221
230.149
213.059
197.236
182.762
169.608
157.692
146.909
137.148
128.304
120.28
112.989
106.339
100.267
94.7089
89.6099
84.9201
80.5966
76.6009
72.9008
69.4722
66.3211
63.7016
345.726
336.495
326.172
314.281
300.395
284.385
266.832
248.597
230.684
213.681
197.886
183.397
170.204
158.233
147.387
137.562
128.655
120.571
113.223
106.522
100.403
94.8051
89.6702
84.9491
80.5985
76.5795
72.8596
69.4141
66.2483
63.6149
345.653
336.261
325.782
313.803
299.964
284.196
266.991
249.148
231.521
214.684
198.952
184.454
171.201
159.14
148.19
138.254
129.237
121.047
113.601
106.81
100.61
94.9389
89.74
84.9631
80.5642
76.5036
72.7483
69.2726
66.0803
63.4211
345.556
335.941
325.24
313.116
299.301
283.782
266.98
249.578
232.302
215.689
200.063
185.579
172.274
160.12
149.052
138.989
129.843
121.528
113.963
107.062
100.763
95.0041
89.727
84.8816
80.4232
76.3117
72.513
69.0004
65.7753
63.0816
345.442
335.559
324.575
312.235
298.374
283.032
266.579
249.586
232.665
216.302
200.815
186.379
173.054
160.83
149.663
139.487
130.222
121.789
114.11
107.105
100.711
94.8652
89.5115
84.5991
80.0828
75.9219
72.0813
68.5335
65.2762
62.5431
345.32
335.127
323.797
311.151
297.128
281.834
265.603
248.921
232.302
216.179
200.85
186.495
173.19
160.941
149.718
139.467
130.119
121.6
113.836
106.753
100.285
94.3735
88.9611
83.9975
79.4375
75.24
71.3694
67.7967
64.5156
61.7423
345.192
334.647
322.886
309.814
295.477
280.054
263.875
247.364
230.961
215.039
199.87
185.625
172.387
160.166
148.943
138.675
129.298
120.743
112.942
105.822
99.3212
93.379
87.9399
82.9541
78.3766
74.166
70.2866
66.7084
63.4195
60.6091
345.062
334.1
321.785
308.119
293.271
277.512
261.19
244.693
228.4
212.628
197.613
183.506
170.381
158.251
147.096
136.879
127.541
119.018
111.24
104.142
97.6594
91.7349
86.3134
81.3457
76.7871
72.5966
68.7384
65.1819
61.9094
59.068
344.928
333.445
320.381
305.876
290.263
273.929
257.26
240.623
224.34
208.672
193.811
179.874
166.921
154.95
143.943
133.859
124.642
116.227
108.548
101.54
95.1412
89.2941
83.945
79.0455
74.5517
70.4232
66.6244
63.1243
59.9006
57.0376
344.788
332.601
318.463
302.755
286.045
268.865
251.65
234.738
218.394
202.813
188.129
174.42
161.712
149.991
139.228
129.376
120.376
112.162
104.67
97.8345
91.5956
85.8968
80.6856
75.9146
71.5409
67.5248
63.8318
60.4304
57.298
54.4256
344.64
331.408
315.632
298.161
279.916
261.597
243.662
226.396
209.98
194.527
180.098
166.716
154.367
143.018
132.625
123.128
114.464
106.564
99.3648
92.801
86.8139
81.3485
76.3535
71.783
67.5955
63.7524
60.2211
56.9685
53.983
51.1183
344.478
329.505
311.053
290.943
270.609
250.874
232.136
214.552
198.173
182.994
168.988
156.108
144.302
133.508
123.657
114.679
106.505
99.065
92.2923
86.1244
80.5034
75.3765
70.6942
66.4128
62.493
58.8972
55.5971
52.5524
49.789
46.9579
344.281
325.945
302.766
278.682
255.665
234.405
215.022
197.403
181.388
166.823
153.571
141.516
130.553
120.588
111.535
103.313
95.845
89.0617
82.8973
77.2911
72.188
67.5381
63.2955
59.419
55.8734
52.621
49.6444
46.8792
44.443
41.6908
343.889
317.627
285.502
255.749
229.868
207.617
188.35
171.512
156.641
143.402
131.547
120.888