/*--------------------------------*- C++ -*----------------------------------*\
  =========                 |
  \\      /  F ield         | OpenFOAM: The Open Source CFD Toolbox
   \\    /   O peration     | Website:  https://openfoam.org
    \\  /    A nd           | Version:  10
     \\/     M anipulation  |
\*---------------------------------------------------------------------------*/
FoamFile
{
    format      ascii;
    class       volScalarField;
    location    "800";
    object      nut;
}
// * * * * * * * * * * * * * * * * * * * * * * * * * * * * * * * * * * * * * //

dimensions      [0 2 -1 0 0 0 0];

internalField   nonuniform List<scalar> 
27507
(
624.521
315.435
131.588
40.005
8.08503
15.1771
22.8463
31.8
41.4537
51.091
60.1608
68.3276
75.4423
82.3407
88.7781
92.1278
94.7104
96.6616
98.0645
98.9975
99.5332
99.7386
99.685
99.4969
99.878
625.906
381.038
159.384
53.5395
7.3664
16.1843
25.9225
35.9772
45.8922
55.2968
63.9037
71.5365
78.1222
84.895
91.3141
94.1812
96.3788
97.9939
99.1078
99.7952
100.124
100.156
99.9565
99.646
99.9282
627.517
511.053
230.961
87.1203
0.225838
10.9097
23.7084
36.0106
47.0811
56.8641
65.4309
72.8548
79.2046
84.5472
90.3591
95.9258
97.9359
99.3939
100.376
100.951
101.185
101.131
100.842
100.374
99.8363
99.9333
630.019
542.275
345.634
166.947
57.8906
0.399662
0.418534
15.1449
29.6611
43.1064
54.9137
64.8709
73.1036
79.8595
85.3819
89.8695
93.4781
97.6934
101.763
102.64
103.125
103.277
103.15
102.791
102.238
101.528
100.705
99.8668
99.7165
633.12
555.858
448.72
308.79
172.95
72.1271
40.1377
52.0253
61.0625
70.2444
78.5796
85.6708
91.4101
95.8854
99.2808
101.795
103.602
104.847
105.642
107.747
107.38
106.798
106.043
105.147
104.136
103.032
101.859
100.646
99.4713
99.0403
635.76
567.769
480.151
374.795
273.072
182.692
135.165
133.966
127.738
124.922
123.49
122.594
121.797
120.905
119.856
118.651
117.318
115.897
114.454
112.85
111.244
109.621
107.985
106.344
104.704
103.07
101.448
99.8537
98.3465
97.6308
637.08
574.519
499.294
415.322
333.27
266.296
219.992
189.532
172.152
160.472
152.151
145.792
140.554
136.032
132
128.325
124.93
121.767
118.818
116.012
113.361
110.851
108.463
106.184
104.003
101.911
99.9016
97.9806
96.1801
95.2023
636.4
573.989
504.298
432.353
363.939
305.378
260.005
226.52
202.937
185.668
172.436
161.734
153.071
145.729
139.374
133.78
128.791
124.302
120.23
116.497
113.059
109.878
106.923
104.164
101.579
99.1485
96.8553
94.6972
92.6729
91.478
632.898
564.096
493.707
427.285
367.575
316.472
274.865
242.039
216.708
196.948
181.268
168.433
157.599
148.576
140.819
134.055
128.087
122.774
118.008
113.699
109.78
106.197
102.906
99.8694
97.055
94.437
91.9907
89.7119
87.5568
86.2066
625.106
541.627
465.381
400.926
347.318
302.941
266.542
236.962
213.092
193.728
177.881
164.778
153.435
143.862
135.684
128.544
122.256
116.675
111.687
107.201
103.143
99.4535
96.0822
92.9889
90.1379
87.5019
85.0495
82.7843
80.6081
79.1761
609.946
501.353
416.384
353.477
305.982
268.806
238.829
214.263
193.971
177.061
162.92
150.971
140.506
131.584
123.875
117.112
111.139
105.828
101.079
96.8089
92.9499
89.4464
86.2506
83.325
80.6333
78.1537
75.8455
73.7356
71.6584
70.2258
580.264
435.356
344.323
286.764
247.614
218.86
196.281
177.835
162.417
149.259
138.089
128.263
119.763
112.348
105.831
100.067
94.9433
90.3648
86.2549
82.5491
79.1932
76.1427
73.3569
70.8072
68.4574
66.3003
64.2777
62.4612
60.6084
59.2605
518.334
334.9
250.713
206.061
178.507
159.407
144.627
132.596
122.459
113.49
105.722
98.85
92.7458
87.316
82.4711
78.1345
74.241
70.7345
67.5664
64.6951
62.0831
59.7017
57.518
55.5189
53.6643
51.9743
50.3587
48.9533
47.454
46.2766
383.652
202.105
147.166
122.175
107.616
97.9425
90.1876
83.9213
78.4827
73.5799
69.1631
65.162
61.5338
58.2373
55.2397
52.5147
50.0373
47.7834
45.7296
43.8552
42.1385
40.567
39.1146
37.7875
36.5365
35.4174
34.3049
33.3794
32.3698
31.4411
151.873
75.068
58.1213
50.5018
45.8623
42.7677
40.2081
37.984
35.9741
34.1121
32.3806
30.7695
29.2786
27.8858
26.5853
25.382
24.2736
23.2545
22.3171
21.455
20.6583
19.9261
19.2406
18.618
18.0148
17.4894
16.948
16.48
16.0901
15.4561
12.4958
9.27997
7.62842
6.70065
6.10474
5.683
5.35396
5.07869
4.83703
4.61778
4.41519
4.22618
4.04903
3.88313
3.72756
3.58144
3.44423
3.31547
3.19473
3.08149
2.97542
2.8757
2.7827
2.69403
2.61356
2.53192
2.46678
2.38197
2.35015
2.22882
625.896
381.187
159.542
54.1458
7.03182
15.9716
25.8053
35.9114
45.8532
55.2726
63.8879
71.5257
78.1149
84.8892
91.308
94.1765
96.375
97.991
99.1054
99.7933
100.122
100.154
99.9553
99.6451
99.9273
626.945
443.744
188.725
64.8689
7.90559
18.4518
29.5253
40.2071
50.1922
59.3175
67.4728
74.6006
80.6906
87.3296
93.7323
96.1497
97.9657
99.255
100.092
100.545
100.677
100.543
100.205
99.7777
99.9647
628.518
536.556
261.326
104.699
1.99107
1.0859
14.4701
28.0096
40.4625
51.4336
60.94
69.1092
76.0801
81.9669
86.8696
92.5564
98.1049
99.7057
100.816
101.503
101.828
101.85
101.618
101.178
100.582
99.9376
99.9466
631.006
546.532
398.057
190.05
79.3465
1.74068
2.51571
21.0463
35.4314
48.4099
59.6713
69.0975
76.8268
83.1045
88.1759
92.2454
95.4743
99.5831
103.611
104.142
104.33
104.23
103.888
103.345
102.637
101.796
100.862
99.9288
99.7001
633.928
559.409
458.632
335.583
193.286
89.5563
53.0354
63.6775
69.9519
77.5674
84.715
90.8399
95.7823
99.5922
102.423
104.451
105.836
106.713
107.188
109.239
108.592
107.768
106.806
105.732
104.569
103.337
102.054
100.746
99.4909
98.9921
636.326
570.172
485.974
385.978
287.678
196.985
147.97
146.061
137.094
132.46
129.659
127.7
126.047
124.454
122.825
121.133
119.389
117.615
115.867
114.004
112.176
110.362
108.562
106.781
105.02
103.282
101.571
99.8998
98.326
97.5534
637.435
575.984
502.609
421.35
341.722
276.125
229.491
197.948
179.023
166.244
156.789
149.64
143.752
138.696
134.221
130.176
126.468
123.039
119.862
116.861
114.043
111.388
108.875
106.488
104.213
102.04
99.9614
97.9801
96.1264
95.1022
636.598
574.793
506.052
435.449
368.397
310.721
265.485
231.677
207.424
189.477
175.677
164.41
155.31
147.601
140.939
135.085
129.877
125.199
120.964
117.089
113.529
110.243
107.195
104.357
101.703
99.2116
96.8657
94.6617
92.5963
91.3643
632.993
564.474
494.526
428.731
369.69
319.105
277.721
244.873
219.314
199.253
183.258
170.165
159.053
149.801
141.85
134.918
128.805
123.366
118.49
114.085
110.082
106.427
103.071
99.9776
97.1135
94.4518
91.9671
89.6546
87.4689
86.0897
625.138
541.753
465.662
401.45
348.155
304.06
267.842
238.331
214.422
194.96
178.985
165.753
154.297
144.592
136.306
129.07
122.695
117.037
111.981
107.434
103.322
99.584
96.1698
93.0382
90.1532
87.4869
85.0074
82.7184
80.5201
79.066
609.946
501.352
416.403
353.559
306.176
269.131
239.27
214.784
194.527
177.615
163.444
151.458
140.948
131.972
124.212
117.402
111.383
106.03
101.242
96.9362
93.0447
89.5115
86.2887
83.3386
80.6246
78.1249
75.7985
73.6724
71.58
70.1307
580.252
435.31
344.248
286.684
247.557
218.852
196.331
177.944
162.567
149.438
138.28
128.455
119.951
112.522
105.988
100.206
95.0623
90.4642
86.3349
82.6105
79.2368
76.1695
73.3678
70.8034
68.4399
66.2701
64.2358
62.4088
60.5461
59.1861
518.322
334.855
250.635
205.96
178.397
159.307
144.55
132.554
122.439
113.498
105.756
98.8965
92.8006
87.3737
82.5281
78.1881
74.289
70.7756
67.5998
64.7202
62.0997
59.7097
57.5176
55.5104
53.648
51.9506
50.3279
48.9163
47.4106
46.2256
383.646
202.08
147.119
122.11
107.537
97.8611
90.1087
83.856
78.4317
73.5446
69.1434
65.1541
61.5348
58.2449
55.2515
52.5286
50.0516
47.7967
45.7408
43.8637
42.1437
40.5685
39.1123
37.7813
36.5263
35.4037
34.287
33.3591
32.344
31.4141
151.872
75.0614
58.1063
50.4792
45.8316
42.7331
40.1724
37.951
35.9455
34.0888
32.363
30.757
29.2699
27.8815
26.5844
25.3835
24.2765
23.258
22.3206
21.458
20.6605
19.9273
19.2405
18.6166
18.0118
17.4854
16.9417
16.4749
16.0766
15.451
12.4958
9.27981
7.62778
6.69937
6.10276
5.68045
5.35101
5.07557
4.83395
4.61489
4.41259
4.22393
4.04714
3.88153
3.72622
3.58034
3.44332
3.31471
3.19408
3.08091
2.97487
2.87515
2.78214
2.69343
2.61291
2.53123
2.46588
2.38149
2.34826
2.22912
627.503
511.163
231.329
88.921
0.216142
10.5591
23.4521
35.8193
46.945
56.7696
65.3654
72.8087
79.1717
84.5233
90.3401
95.91
97.9234
99.384
100.368
100.945
101.179
101.127
100.838
100.371
99.8335
99.9309
628.512
536.545
261.595
104.982
1.14191
1.072
14.5289
27.9279
40.3613
51.3518
60.8801
69.0663
76.0494
81.9447
86.8533
92.5438
98.0951
99.6979
100.81
101.498
101.824
101.846
101.615
101.176
100.58
99.9358
99.9451
630.425
545.178
342.404
156.821
45.9624
12.3311
26.9803
40.5017
52.4218
62.5717
71.0573
78.0875
83.8808
88.6218
92.4581
97.2715
102.021
102.881
103.356
103.499
103.364
102.995
102.433
101.715
100.885
100.04
99.8849
632.766
554.185
443.449
268.513
141.281
41.4681
18.6387
25.642
38.7472
51.1584
62.2715
71.813
79.6945
86.0334
91.0474
94.9677
97.9954
100.293
103.631
106.927
106.827
106.472
105.907
105.168
104.288
103.294
102.21
101.07
99.9599
99.5845
635.31
565.273
472.351
355.685
233.453
142.726
100.551
89.78
90.3481
94.1887
98.4784
102.337
105.434
107.72
109.271
110.21
110.659
110.729
110.502
111.91
110.747
109.478
108.134
106.733
105.29
103.819
102.332
100.851
99.445
98.8195
637.284
574.175
495.133
402.944
312.455
239.016
193.295
168.437
155.025
146.382
141.105
137.155
133.888
130.977
128.257
125.654
123.14
120.712
118.398
116.055
113.817
111.651
109.55
107.509
105.525
103.595
101.718
99.9062
98.2086
97.3297
638.027
578.428
508.064
431.182
356.012
291.919
244.879
212.839
191.577
176.679
165.314
156.695
149.596
143.548
138.251
133.52
129.232
125.311
121.713
118.351
115.224
112.303
109.559
106.972
104.525
102.204
99.9963
97.9038
95.9517
94.8407
636.919
576.107
508.943
440.594
375.942
319.701
274.801
240.729
215.446
196.328
181.45
169.3
159.35
150.969
143.744
137.414
131.802
126.776
122.24
118.106
114.322
110.842
107.625
104.64
101.859
99.2564
96.8138
94.5256
92.3845
91.0833
633.132
565.048
495.816
431.08
373.215
323.542
282.597
249.792
223.89
203.324
186.772
173.237
161.644
151.958
143.662
136.426
130.05
124.381
119.305
114.725
110.569
106.78
103.307
100.11
97.1553
94.4139
91.8592
89.4853
87.2432
85.81
625.17
541.894
466.031
402.219
349.46
305.87
269.996
240.638
216.692
197.076
180.887
167.434
155.785
145.847
137.369
129.959
123.43
117.634
112.455
107.798
103.588
99.7625
96.2706
93.0699
90.1232
87.4021
84.8738
82.5416
80.3031
78.8077
609.926
501.288
416.339
353.585
306.384
269.568
239.922
215.594
195.413
178.513
164.298
152.252
141.673
132.606
124.76
117.865
111.767
106.34
101.484
97.1148
93.1653
89.5792
86.3082
83.3142
80.5604
78.0247
75.6656
73.5104
71.3904
69.9106
580.217
435.187
344.053
286.461
247.365
218.741
196.324
178.045
162.748
149.68
138.545
128.732
120.229
112.779
106.218
100.406
95.2298
90.5985
86.4362
82.6796
79.2749
76.1782
73.3487
70.7583
68.3705
66.1784
64.1231
62.2775
60.3967
59.0152
518.294
334.754
250.464
205.736
178.149
159.071
144.351
132.416
122.344
113.456
105.765
98.9309
92.8538
87.4358
82.5918
78.248
74.3412
70.8173
67.6289
64.7356
62.1008
59.6962
57.4896
55.4684
53.5922
51.882
50.2464
48.8244
47.3061
46.1097
383.634
202.03
147.026
121.976
107.374
97.6891
89.9376
83.7073
78.308
73.4498
69.0777
65.1114
61.5098
58.2335
55.2493
52.5317
50.0566
47.8011
45.7425
43.8611
42.1358
40.5547
39.092
37.7545
36.4926
35.3637
34.2396
33.3087
32.2779
31.3572
151.871
75.0492
58.0779
50.4354
45.7714
42.6639
40.0998
37.8817
35.8834
34.0359
32.3202
30.7237
29.2438
27.8638
26.5732
25.377
24.2729
23.256
22.319
21.4559
20.6573
19.9224
19.2335
18.6075
18.0002
17.4719
16.9238
16.4635
16.0216
15.4667
12.4958
9.27956
7.62663
6.69702
6.09904
5.67555
5.34521
5.06932
4.82763
4.60882
4.40699
4.2189
4.04272
3.87764
3.72284
3.5774
3.44075
3.31244
3.19202
3.079
2.97305
2.87337
2.78035
2.69161
2.61092
2.52954
2.46246
2.38449
2.32486
2.24753
629.999
542.15
347.738
166.339
55.8283
0.178897
14.9822
29.4729
42.8948
54.7142
64.7046
72.974
79.7616
85.3085
89.8143
93.4361
97.6606
101.737
102.619
103.108
103.263
103.139
102.781
102.23
101.521
100.699
99.8618
99.7122
630.99
546.443
398.813
191.407
79.4836
1.72223
1.74915
20.9698
35.3157
48.2651
59.5225
68.9682
76.7238
83.0255
88.116
92.1999
95.4393
99.5565
103.591
104.125
104.317
104.219
103.879
103.338
102.631
101.791
100.857
99.9248
99.6966
632.758
554.15
443.381
268.693
141.463
40.9452
18.5972
25.5378
38.6344
51.0734
62.1975
71.7419
79.6316
85.9817
91.0067
94.9361
97.971
100.274
103.616
106.916
106.818
106.465
105.901
105.163
104.284
103.29
102.207
101.067
99.9576
99.5825
634.871
563.198
466.464
343.417
213.312
122.248
70.0566
63.7675
69.3336
76.8273
84.0684
90.369
95.5073
99.5012
102.487
104.636
106.112
107.052
109.073
111.054
110.132
109.067
107.894
106.636
105.314
103.943
102.54
101.129
99.7856
99.2139
636.928
572.156
488.872
389.018
290.892
197.043
148.657
127.758
120.297
118.396
118.326
118.736
119.06
119.078
118.751
118.113
117.225
116.153
114.944
115.205
113.365
111.512
109.667
107.836
106.027
104.243
102.488
100.778
99.1738
98.3786
638.373
578.767
505.762
422.941
341.054
272.982
225.455
195.754
177.344
164.959
156.121
149.511
144.084
139.403
135.222
131.402
127.866
124.57
121.509
118.536
115.762
113.136
110.639
108.258
105.981
103.8
101.708
99.7108
97.8499
96.8287
638.666
581.119
514.206
442.449
372.543
311.845
264.94
231.177
207.251
189.78
176.386
165.698
157.048
149.705
143.33
137.694
132.645
128.08
123.93
120.098
116.568
113.297
110.253
107.407
104.735
102.22
99.8458
97.609
95.5275
94.3004
637.227
577.431
512.009
446.27
384.497
330.376
286.167
251.689
225.261
204.794
188.618
175.427
164.375
155.136
147.186
140.244
134.106
128.628
123.703
119.234
115.16
111.429
107.995
104.821
101.874
99.1291
96.562
94.1655
91.9256
90.532
633.222
565.483
496.968
433.422
376.986
328.515
288.228
255.534
229.299
208.181
191.002
176.874
164.777
154.526
145.793
138.174
131.463
125.503
120.172
115.369
111.019
107.059
103.436
100.108
97.0375
94.1947
91.5508
89.0989
86.7843
85.2792
625.14
541.838
466.123
402.718
350.573
307.631
272.235
243.122
219.192
199.439
183.026
169.315
157.454
147.243
138.532
130.911
124.191
118.224
112.892
108.099
103.767
99.8327
96.2438
92.9566
89.9327
87.143
84.5535
82.1675
79.8778
78.3277
609.847
501.033
415.99
353.282
306.27
269.732
240.366
216.262
196.212
179.362
165.126
153.024
142.382
133.222
125.278
118.287
112.097
106.582
101.645
97.2001
93.1808
89.5307
86.201
83.1536
80.3511
77.7712
75.3719
73.1812
71.0268
69.5064
580.138
434.922
343.639
285.967
246.877
218.339
196.052
177.917
162.735
149.764
138.672
128.893
120.409
112.947
106.364
100.522
95.3128
90.6459
86.4473
82.6543
79.2141
76.0833
73.2212
70.6001
68.1834
65.9646
63.8841
62.0161
60.1137
58.7032
518.241
334.575
250.165
205.343
177.702
158.623
143.94
132.082
122.065
113.254
105.634
98.8415
92.7984
87.4008
82.567
78.2254
74.3148
70.7824
67.5825
64.6754
62.0254
59.6049
57.3821
55.3447
53.4526
51.7274
50.0771
48.6416
47.1113
45.8954
383.614
201.95
146.878
121.765
107.11
97.4032
89.6447
83.4378
78.0686
73.2487
68.9159
64.9826
61.408
58.1532
55.1849
52.4778
50.0087
47.7553
45.6958
43.8113
42.081
40.4939
39.0243
37.6795
36.4099
35.2736
34.1419
33.2035
32.1674
31.235
151.869
75.0314
58.0359
50.3701
45.6802
42.5566
39.9842
37.7677
35.7766
33.9405
32.2378
30.654
29.1843
27.816
26.535
25.346
24.247
23.2331
22.2975
21.4347
20.6353
19.8989
19.208
18.5797
17.9697
17.4387
16.888
16.4239
15.9819
15.421
12.4958
9.27921
7.62499
6.69362
6.09358
5.6682
5.33637
5.05956
4.81751
4.59881
4.39743
4.21001
4.03458
3.87019
3.71607
3.57124
3.43513
3.30726
3.1872
3.07444
2.96867
2.86909
2.77613
2.68735
2.60668
2.52508
2.45822
2.37943
2.32074
2.242
633.118
555.918
449.497
320.717
172.013
70.5101
39.0919
51.4018
60.6989
69.9738
78.3432
85.4638
91.2353
95.7429
99.1673
101.705
103.532
104.792
105.598
107.713
107.352
106.774
106.023
105.131
104.122
103.021
101.849
100.637
99.464
99.0339
633.916
559.342
458.23
334.76
193.163
88.8507
52.6916
62.8918
69.6088
77.3265
84.5135
90.6653
95.6345
99.471
102.326
104.374
105.775
106.665
107.149
109.209
108.567
107.748
106.789
105.718
104.558
103.327
102.045
100.739
99.4845
98.9865
635.3
565.223
472.194
355.496
233.376
142.522
100.363
89.5138
90.1227
94.0162
98.3394
102.22
105.336
107.639
109.205
110.157
110.617
110.695
110.475
111.889
110.73
109.464
108.122
106.723
105.282
103.812
102.326
100.845
99.4403
98.8154
636.923
572.135
488.817
388.942
290.827
196.962
148.54
127.638
120.195
118.314
118.26
118.682
119.014
119.041
118.72
118.088
117.205
116.137
114.931
115.194
113.356
111.505
109.661
107.831
106.022
104.239
102.485
100.776
99.1713
98.3765
638.396
578.53
504.28
419.003
334.682
253.067
200.579
171.153
155.615
146.898
141.549
137.739
134.675
131.943
129.358
126.848
124.39
121.989
119.654
118.421
115.831
113.333
110.934
108.632
106.42
104.293
102.246
100.286
98.4601
97.4722
639.279
582.732
515.273
441.054
367.922
304.889
257.137
223.875
200.995
184.77
172.415
162.809
154.98
148.321
142.506
137.327
132.653
128.395
124.509
120.845
117.482
114.352
111.422
108.669
106.073
103.619
101.292
99.0936
97.0522
95.8698
639.11
583.152
519.269
452.263
387.548
330.498
284.453
249.411
223.186
203.288
187.761
175.132
164.737
155.993
148.447
141.829
135.953
130.687
125.936
121.594
117.625
113.978
110.608
107.481
104.569
101.846
99.2915
96.8997
94.6768
93.3186
637.34
578.102
514.054
450.671
391.715
339.894
296.728
262.11
234.777
213.108
195.688
181.455
169.345
159.172
150.466
142.872
136.175
130.218
124.879
120.054
115.673
111.676
108.011
104.636
101.515
98.6188
95.9203
93.4098
91.0635
89.5662
633.13
565.31
497.169
434.611
379.559
332.394
292.937
260.527
234.124
212.576
194.853
180.163
167.605
156.801
147.625
139.616
132.564
126.305
120.712
115.681
111.13
106.993
103.216
99.7525
96.5632
93.6161
90.8806
88.3488
85.9576
84.3724
624.951
541.262
465.415
402.246
350.649
308.379
273.561
244.808
221.01
201.221
184.662
170.743
158.711
148.262
139.335
131.514
124.612
118.481
113
108.073
103.621
99.5793
95.8944
92.5214
89.4211
86.5634
83.9132
81.474
79.132
77.5213
609.644
500.383
415.041
352.247
305.358
269.09
240.042
216.223
196.374
179.645
165.448
153.336
142.671
133.457
125.441
118.373
112.105
106.516
101.506
96.9933
92.9104
89.2011
85.8168
82.7192
79.8707
77.2492
74.8116
72.5874
70.3995
68.8341
579.977
434.404
342.843
284.996
245.853
217.373
195.218
177.251
162.218
149.389
138.371
128.667
120.232
112.788
106.206
100.355
95.128
90.4385
86.214
82.3935
78.925
75.7658
72.876
70.2281
67.7858
65.5431
63.4398
61.5515
59.6298
58.1864
518.147
334.272
249.674
204.698
176.955
157.842
143.182
131.403
121.448
112.74
105.199
98.4744
92.4864
87.1287
82.3221
77.9973
74.0951
70.5647
67.3618
64.4481
61.7888
59.3573
57.1223
55.0722
53.1671
51.4292
49.7663
48.318
46.7803
45.5388
383.583
201.833
146.662
121.455
106.717
96.9644
89.1827
82.9909
77.6503
72.8746
68.5871
64.6962
61.1582
57.9348
54.9915
52.3031
49.8471
47.602
45.5469
43.6636
41.9322
40.3421
38.868
37.5181
36.2426
35.1001
33.963
33.0142
31.9863
31.0223
151.867
75.0079
57.9798
50.281
45.5537
42.404
39.8157
37.5953
35.6087
33.7835
32.0946
30.5256
29.0686
27.7148
26.4465
25.2677
24.1763
23.1679
22.2358
21.3749
20.5761
19.8394
19.1474
18.5176
17.9057
17.3719
16.8217
16.3442
15.9461
15.304
12.4958
9.27877
7.62291
6.6892
6.08632
5.65823
5.32407
5.04564
4.80267
4.5837
4.38254
4.19567
4.02099
3.85735
3.704
3.55993
3.42451
3.29725
3.17769
3.06535
2.9599
2.86056
2.76778
2.67907
2.59857
2.51653
2.45131
2.36583
2.33363
2.21198
635.758
567.785
480.287
374.618
272.218
181.707
134.373
133.446
127.359
124.624
123.25
122.397
121.633
120.77
119.745
118.56
117.244
115.836
114.404
112.81
111.211
109.593
107.961
106.324
104.687
103.056
101.435
99.843
98.3372
97.6225
636.317
570.127
485.795
385.255
287.167
196.367
147.413
145.706
136.769
132.201
129.451
127.529
125.905
124.337
122.728
121.054
119.324
117.562
115.823
113.968
112.146
110.337
108.541
106.763
105.005
103.269
101.559
99.8902
98.3176
97.5459
637.274
574.13
495.001
402.655
312.188
238.736
193.026
168.185
154.799
146.195
140.952
137.028
133.783
130.889
128.184
125.594
123.091
120.671
118.364
116.026
113.793
111.632
109.533
107.495
105.513
103.584
101.71
99.8984
98.2018
97.3237
638.367
578.74
505.693
422.817
340.923
272.833
225.3
195.607
177.213
164.847
156.028
149.433
144.019
139.349
135.176
131.364
127.834
124.543
121.487
118.518
115.746
113.123
110.628
108.248
105.973
103.793
101.702
99.7055
97.8452
96.8246
639.276
582.721
515.248
441.011
367.872
304.83
257.075
223.814
200.941
184.723
172.375
162.776
154.952
148.297
142.486
137.31
132.638
128.383
124.499
120.836
117.475
114.346
111.417
108.664
106.069
103.615
101.289
99.091
97.05
95.8677
639.645
584.764
521.221
453.625
387.801
329.731
283.102
247.953
221.893
202.288
187.066
174.699
164.588
156.059
148.688
142.213
136.453
131.28
126.604
122.312
118.387
114.777
111.438
108.334
105.439
102.728
100.183
97.796
95.5817
94.2375
639.07
583.5
521.432
457.999
397.644
344.071
299.502
264.064
236.367
214.617
197.247
183.107
171.107
161.083
152.463
144.94
138.298
132.382
127.073
122.262
117.889
113.893
110.224
106.84
103.706
100.793
98.075
95.5427
93.1872
91.6985
637.025
577.315
513.709
451.946
395.324
345.695
303.853
269.565
241.829
219.379
201.043
185.919
173.061
162.038
152.671
144.505
137.315
130.932
125.226
120.086
115.433
111.2
107.33
103.778
100.504
97.4747
94.6612
92.0518
89.609
88.0095
632.668
563.907
495.424
433.34
379.389
333.485
295.018
263.145
236.868
215.169
197.139
182.063
169.196
157.981
148.448
140.129
132.8
126.296
120.488
115.267
110.549
106.267
102.361
98.7848
95.4967
92.4634
89.6523
87.0557
84.5983
82.9352
624.458
539.7
463.198
399.924
348.694
307.046
272.873
244.628
221.145
201.502
184.964
170.977
158.878
148.307
139.245
131.293
124.267
118.02
112.433
107.408
102.868
98.7464
94.9895
91.5519
88.3938
85.4849
82.7887
80.3104
77.9262
76.2575
609.213
499.015
413.023
349.923
303.038
266.997
238.286
214.818
195.264
178.765
164.713
152.679
142.073
132.89
124.863
117.774
111.476
105.853
100.806
96.2564
92.1366
88.3917
84.9733
81.8438
78.9655
76.3167
73.8535
71.6079
69.3958
67.7879
579.666
433.442
341.398
283.238
243.951
215.481
193.448
175.668
160.823
148.193
137.298
127.733
119.394
112.021
105.487
99.6657
94.4561
89.7745
85.551
81.7262
78.2499
75.0805
72.1789
69.5185
67.0631
64.8079
62.6915
60.7923
58.8594
57.3852
517.979
333.763
248.876
203.663
175.751
156.557
141.893
130.187
120.297
111.715
104.272
97.6457
91.7408
86.4519
81.6994
77.4159
73.5443
70.0357
66.8473
63.9425
61.2877
58.8574
56.621
54.568
52.6582
50.9154
49.2465
47.7921
46.2526
44.9884
383.532
201.657
146.346
121.002
106.142
96.3097
88.4809
82.2881
76.9695
72.2398
68.0029
64.1641
60.674
57.4943
54.5883
51.9306
49.4989
47.2723
45.2308
43.3571
41.6319
40.0455
38.5729
37.2233
35.9465
34.8021
33.6633
32.7086
31.6883
30.7038
151.864
74.9773
57.9059
50.1619
45.3822
42.193
39.5772
37.3444
35.3566
33.5396
31.8637
30.3104
28.8684
27.5317
26.2794
25.1143
24.0341
23.0344
22.1089
21.2529
20.4572
19.7228
19.0317
18.4025
17.7903
17.2555
16.7059
16.2232
15.8342
15.179
12.4958
9.27826
7.62036
6.68363
6.07697
5.64508
5.30751
5.02645
4.7817
4.5618
4.3604
4.17379
3.9997
3.83678
3.68426
3.54106
3.40649
3.28001
3.16117
3.04945
2.94454
2.84563
2.75324
2.66479
2.58457
2.50265
2.43758
2.35221
2.32052
2.19764
637.076
574.504
499.264
415.114
332.779
265.765
219.51
189.116
171.824
160.198
151.933
145.612
140.404
135.907
131.895
128.238
124.857
121.707
118.767
115.969
113.325
110.821
108.437
106.162
103.984
101.894
99.8874
97.9683
96.1692
95.1926
637.427
575.948
502.501
421.037
341.347
275.725
229.124
197.621
178.743
166.006
156.596
149.48
143.619
138.584
134.127
130.098
126.403
122.985
119.816
116.822
114.01
111.36
108.852
106.468
104.196
102.025
99.9484
97.9687
96.1164
95.0933
638.019
578.392
507.968
430.982
355.775
291.659
244.624
212.603
191.367
176.501
165.163
156.569
149.49
143.459
138.177
133.457
129.179
125.266
121.675
118.319
115.197
112.28
109.539
106.955
104.511
102.191
99.9853
97.8942
95.9432
94.8331
638.66
581.093
514.145
442.338
372.408
311.692
264.782
231.027
207.115
189.662
176.283
165.612
156.975
149.643
143.277
137.649
132.607
128.048
123.903
120.075
116.548
113.28
110.238
107.394
104.725
102.211
99.8375
97.6017
95.5211
94.2946
639.106
583.138
519.238
452.21
387.481
330.42
284.371
249.33
223.112
203.222
187.704
175.082
164.694
155.957
148.416
141.802
135.93
130.667
125.919
121.58
117.613
113.967
110.599
107.473
104.562
101.839
99.2862
96.895
94.6726
93.3148
639.069
583.495
521.421
457.981
397.62
344.043
299.472
264.034
236.339
214.592
197.225
183.087
171.089
161.068
152.45
144.929
138.288
132.373
127.065
122.256
117.884
113.889
110.22
106.836
103.703
100.79
98.0725
95.5405
93.1852
91.6967
638.191
580.978
518.844
457.368
400.24
349.785
307.153
272.263
244.121
221.412
202.913
187.679
174.746
163.678
154.263
146.06
138.838
132.426
126.692
121.524
116.842
112.582
108.686
105.108
101.808
98.7542
95.9168
93.2835
90.8252
89.2224
635.967
574.044
509.419
448.208
393.271
345.628
305.361
271.946
244.457
221.839
203.115
187.502
174.254
162.703
152.885
144.343
136.822
130.15
124.192
118.835
113.995
109.6
105.59
101.917
98.5399
95.4226
92.5338
89.8617
87.35
85.6633
631.565
560.406
490.462
428.136
374.898
330.168
292.856
261.855
236.11
214.665
196.696
181.554
168.617
157.253
147.537
139.071
131.6
124.966
119.039
113.713
108.902
104.537
100.559
96.9199
93.5773
90.4972
87.6455
85.0165
82.518
80.7904
623.435
536.453
458.479
394.634
343.554
302.496
269.064
241.519
218.595
199.36
183.09
169.26
157.263
146.76
137.706
129.749
122.706
116.435
110.82
105.768
101.199
97.0517
93.2699
89.8097
86.6312
83.7046
80.9922
78.5028
76.0985
74.3835
608.376
496.411
409.228
345.524
298.51
262.673
234.351
211.336
192.212
176.092
162.34
150.509
140.098
131.071
123.137
116.117
109.87
104.282
99.2604
94.7271
90.618
86.8796
83.4647
80.3366
77.4584
74.8095
72.3446
70.1004
67.8827
66.2421
579.089
431.711
338.874
280.218
240.687
212.187
190.28
172.725
158.127
145.775
135.074
125.733
117.567
110.342
103.923
98.1927
93.0554
88.4307
84.2515
80.4612
77.0115
73.8627
70.9768
68.3286
65.8823
63.6348
61.5231
59.6303
57.7006
56.2034
517.679
332.896
247.57
202.008
173.846
154.52
139.828
128.191
118.376
109.946
102.635
96.1448
90.3628
85.1825
80.5222
76.3157
72.5074
69.0505
65.9038
63.0325
60.4043
57.9952
55.7752
53.7355
51.8357
50.1014
48.4383
46.9892
45.458
44.1774
383.447
201.383
145.871
120.332
105.296
95.3416
87.4367
81.2233
75.9188
71.2368
67.0579
63.2833
59.856
56.7358
53.8836
51.273
48.8811
46.6878
44.6736
42.8221
41.1145
39.5424
38.0809
36.7404
35.4701
34.3314
33.1971
32.2431
31.2349
30.2365
151.858
74.9356
57.8054
49.9989
45.1463
41.8998
39.242
36.9854
34.9886
33.1757
31.5117
29.9748
28.5505
27.2337
26.0012
24.8543
23.79
22.8036
21.8891
21.042
20.2535
19.5249
18.8381
18.2126
17.603
17.0701
16.5233
16.0387
15.6566
14.997
12.4958
9.27765
7.61719
6.67652
6.06478
5.62763
5.28519
5.00016
4.7525
4.53078
4.32847
4.14167
3.96794
3.80565
3.65399
3.51177
3.37824
3.2528
3.13494
3.02412
2.92005
2.82186
2.73014
2.64221
2.56258
2.48098
2.41643
2.33121
2.30006
2.17703
636.394
573.965
504.239
432.197
363.655
305.046
259.678
226.222
202.684
185.455
172.253
161.583
152.943
145.62
139.282
133.702
128.725
124.245
120.182
116.456
113.024
109.848
106.896
104.141
101.56
99.1315
96.8404
94.6841
92.6612
91.4675
636.591
574.764
505.978
435.282
368.159
310.448
265.214
231.426
207.203
189.287
175.513
164.273
155.194
147.502
140.855
135.014
129.816
125.147
120.919
117.052
113.497
110.215
107.171
104.336
101.684
99.1956
96.8517
94.6494
92.5854
91.3546
636.912
576.079
508.877
440.466
375.772
319.506
274.602
240.539
215.273
196.177
181.32
169.187
159.255
150.887
143.674
137.354
131.751
126.732
122.202
118.074
114.294
110.818
107.605
104.622
101.843
99.2426
96.8017
94.515
92.375
91.0748
637.221
577.409
511.962
446.187
384.389
330.25
286.035
251.56
225.142
204.687
188.524
175.345
164.305
155.075
147.134
140.198
134.067
128.595
123.674
119.209
115.138
111.41
107.979
104.807
101.862
99.1181
96.5523
94.1569
91.918
90.5252
637.336
578.088
514.026
450.624
391.653
339.821
296.65
262.032
234.704
213.041
195.628
181.402
169.298
159.132
150.431
142.841
136.149
130.195
124.859
120.037
115.658
111.663
107.999
104.626
101.506
98.6109
95.9133
93.4036
91.058
89.5611
637.023
577.307
513.695
451.923
395.294
345.659
303.815
269.525
241.791
219.343
201.011
185.89
173.035
162.015
152.651
144.487
137.3
130.919
125.214
120.076
115.424
111.192
107.323
103.772
100.499
97.4699
94.6569
92.048
89.6055
88.0064
635.967
574.041
509.414
448.2
393.261
345.615
305.347
271.932
244.443
221.826
203.103
187.491
174.244
162.694
152.877
144.336
136.816
130.145
124.187
118.831
113.991
109.596
105.587
101.915
98.5375
95.4204
92.5318
89.8599
87.3484
85.6619
633.692
566.847
499.237
437.416
383.615
337.885
299.524
267.593
241.086
219.035
200.59
185.062
171.851
160.23
150.293
141.659
134.044
127.284
121.245
115.82
110.921
106.476
102.425
98.7192
95.3155
92.1789
89.2756
86.5968
84.061
82.3144
629.381
553.5
480.549
417.199
364.404
320.897
285.023
255.326
230.616
209.931
192.495
177.714
165.017
153.837
144.232
135.835
128.414
121.814
115.911
110.603
105.807
101.455
97.4893
93.8614
90.5304
87.463
84.6235
82.011
79.5112
77.7432
621.493
530.392
449.799
384.881
333.842
293.471
261.003
234.453
212.421
193.927
178.249
164.871
153.205
143.015
134.177
126.387
119.477
113.312
107.784
102.803
98.2949
94.1984
90.4609
87.0396
83.8957
81.0011
78.3166
75.8576
73.4675
71.7266
606.818
491.684
402.539
337.924
290.73
255.173
227.387
205.009
186.52
170.986
157.742
146.288
136.263
127.537
119.842
113.018
106.932
101.477
96.5661
92.1257
88.0949
84.4233
81.0658
77.9877
75.1529
72.5434
70.1117
67.9024
65.7076
64.0509
578.02
428.618
334.542
275.197
235.37
206.861
185.142
167.9
153.654
141.69
131.291
122.293
114.406
107.425
101.213
95.6574
90.6669
86.1658
82.0909
78.3889
75.014
71.9292
69.098
66.4974
64.0919
61.8813
59.8001
57.9384
56.0343
54.527
517.126
331.378
245.391
199.349
170.866
151.377
136.655
125.109
115.397
107.165
100.036
93.738
88.1341
83.1152
78.5978
74.5158
70.815
67.45
64.3819
61.5775
59.0063
56.6461
54.4677
52.4643
50.5952
48.8889
47.2486
45.821
44.314
43.0261
383.294
200.927
145.116
119.302
104.027
93.9087
85.9003
79.6527