/*--------------------------------*- C++ -*----------------------------------*\
  =========                 |
  \\      /  F ield         | OpenFOAM: The Open Source CFD Toolbox
   \\    /   O peration     | Website:  https://openfoam.org
    \\  /    A nd           | Version:  10
     \\/     M anipulation  |
\*---------------------------------------------------------------------------*/
FoamFile
{
    format      ascii;
    class       volScalarField;
    location    "800";
    object      omega;
}
// * * * * * * * * * * * * * * * * * * * * * * * * * * * * * * * * * * * * * //

dimensions      [0 0 -1 0 0 0 0];

internalField   nonuniform List<scalar> 
27507
(
0.55875
0.694146
1.21388
7.73756
3.11716
3.08392
2.78286
2.40789
2.07148
1.79807
1.58278
1.4139
1.28027
1.15975
1.05289
0.988261
0.933456
0.886085
0.844753
0.808352
0.775996
0.746992
0.720779
0.696959
0.673906
0.557098
0.673916
1.06931
5.14357
4.252
3.59872
2.91068
2.40119
2.03153
1.75749
1.54967
1.38875
1.26166
1.14421
1.03951
0.978156
0.925611
0.880078
0.840207
0.804953
0.773494
0.745191
0.719529
0.696144
0.673438
0.554909
0.650542
0.89398
2.52379
22.3527
5.94866
3.80223
2.81726
2.26035
1.90331
1.65464
1.47118
1.33012
1.21827
1.11185
1.01544
0.95973
0.911568
0.869447
0.83223
0.799043
0.769198
0.742161
0.717496
0.694902
0.672826
0.551797
0.632937
0.825563
1.44491
5.15728
72.2801
59.3382
7.58674
4.32314
3.04929
2.38192
1.97675
1.70625
1.51286
1.36726
1.25321
1.16106
1.07026
0.985725
0.937175
0.894521
0.85666
0.822756
0.79216
0.764351
0.738921
0.715529
0.693955
0.672668
0.548188
0.613677
0.745058
1.05019
1.79859
3.86088
5.75016
4.01142
3.12936
2.52457
2.11356
1.82536
1.61577
1.45783
1.33478
1.23604
1.15472
1.08626
1.02751
0.956356
0.915052
0.878008
0.844521
0.814052
0.786169
0.760512
0.736789
0.714752
0.694272
0.673796
0.545108
0.597688
0.689781
0.855588
1.11977
1.58471
1.95407
1.77645
1.70623
1.60431
1.49965
1.40221
1.3152
1.23867
1.17151
1.11234
1.05985
1.01291
0.970408
0.93215
0.897247
0.865242
0.835743
0.808433
0.783049
0.759377
0.737239
0.716468
0.697024
0.677239
0.543299
0.588112
0.658193
0.76447
0.910614
1.07421
1.21151
1.29899
1.31884
1.30538
1.27254
1.23047
1.18564
1.14096
1.09785
1.05693
1.01842
0.982318
0.948429
0.916723
0.887
0.859074
0.832812
0.808083
0.784765
0.762742
0.741917
0.722179
0.703597
0.684251
0.543314
0.586459
0.647205
0.727524
0.826001
0.931466
1.02568
1.09584
1.13416
1.14763
1.14396
1.13018
1.10821
1.08228
1.05424
1.02535
0.996377
0.967794
0.939906
0.91293
0.886962
0.862043
0.838172
0.815335
0.793509
0.772653
0.752737
0.733678
0.715697
0.696406
0.545838
0.594663
0.656612
0.728854
0.808189
0.888444
0.961028
1.01903
1.05835
1.08038
1.08803
1.08546
1.07623
1.0604
1.04087
1.01903
0.995832
0.971953
0.947859
0.923891
0.900287
0.877208
0.854754
0.832993
0.811965
0.79168
0.772164
0.753319
0.735608
0.715841
0.552214
0.61706
0.691194
0.767402
0.841932
0.911564
0.972591
1.02181
1.05736
1.0797
1.09032
1.09108
1.0866
1.07565
1.05991
1.04134
1.02084
0.999116
0.97669
0.953966
0.931245
0.908747
0.886632
0.865008
0.843964
0.823524
0.803786
0.784547
0.766718
0.745743
0.565535
0.663642
0.764634
0.856011
0.934407
0.999945
1.05328
1.09454
1.12383
1.14212
1.15023
1.1499
1.14489
1.13365
1.11793
1.09932
1.07864
1.05659
1.03368
1.01033
0.986856
0.963502
0.940455
0.917833
0.895769
0.874246
0.853506
0.833026
0.814639
0.791398
0.594046
0.759283
0.910236
1.02847
1.11557
1.17818
1.223
1.25371
1.27258
1.28212
1.28226
1.27718
1.26589
1.24983
1.23023
1.20805
1.18405
1.15884
1.13291
1.10665
1.08038
1.05431
1.02866
1.0035
0.979055
0.955123
0.93233
0.909296
0.889849
0.862679
0.664504
0.975695
1.21559
1.36967
1.46127
1.51189
1.53956
1.55099
1.5506
1.54442
1.53035
1.51126
1.48815
1.46176
1.43291
1.4023
1.37056
1.33816
1.30553
1.27298
1.24081
1.20917
1.17831
1.14814
1.11917
1.09059
1.06415
1.0362
1.01505
0.981036
0.896587
1.57444
1.951
2.11822
2.17845
2.18024
2.16539
2.13387
2.09586
2.05548
2.01238
1.96732
1.92073
1.87326
1.82538
1.77744
1.72972
1.68253
1.63614
1.59075
1.54662
1.50372
1.4625
1.4223
1.38457
1.34659
1.3135
1.27559
1.25122
1.20466
2.25129
3.88437
4.19795
4.15082
4.01634
3.84884
3.69714
3.55846
3.43082
3.31225
3.20021
3.09328
2.99013
2.89173
2.79794
2.70776
2.62085
2.53713
2.45667
2.37942
2.30569
2.23488
2.16817
2.10306
2.04411
1.98268
1.93354
1.87221
1.83455
1.76532
25.3733
18.8433
15.4898
13.6059
12.3959
11.5395
10.8714
10.3125
9.82177
9.37658
8.9652
8.58141
8.22172
7.88485
7.56895
7.27225
6.99363
6.73219
6.48702
6.25708
6.04169
5.83921
5.65037
5.47036
5.3068
5.14167
5.00687
4.84461
4.74132
4.55684
0.557106
0.673956
1.071
5.32312
4.34766
3.62539
2.9181
2.40368
2.03254
1.75795
1.5499
1.38887
1.26173
1.14425
1.03956
0.978187
0.925633
0.880094
0.84022
0.804963
0.773502
0.745197
0.719534
0.696147
0.673441
0.555787
0.660247
0.975229
3.80491
5.29513
3.82784
2.9221
2.36026
1.98448
1.71716
1.51819
1.36508
1.24412
1.12962
1.02683
0.968469
0.9182
0.874437
0.835945
0.801766
0.771147
0.743503
0.71836
0.695386
0.673011
0.553697
0.642351
0.852436
2.20395
64.3171
16.4971
5.70291
3.63993
2.71509
2.19019
1.85279
1.61751
1.44368
1.30968
1.20305
1.09914
1.00426
0.951185
0.905032
0.864462
0.828453
0.796211
0.767109
0.74066
0.716461
0.694241
0.672464
0.55068
0.626921
0.797276
1.299
3.84972
54.8482
26.9603
6.3996
3.93998
2.87114
2.28256
1.91454
1.6642
1.483
1.34541
1.23692
1.14879
1.05988
0.976573
0.930112
0.889076
0.852479
0.819571
0.789764
0.762582
0.737652
0.714663
0.693412
0.672386
0.547306
0.609078
0.727638
0.975599
1.61187
3.16155
4.55537
3.41676
2.82847
2.35465
2.00987
1.75811
1.56992
1.42527
1.31095
1.21818
1.14114
1.07583
1.01945
0.949192
0.909459
0.873653
0.841152
0.811471
0.784221
0.759073
0.735761
0.714057
0.69385
0.673592
0.544495
0.594701
0.680602
0.829267
1.06223
1.47286
1.79721
1.6465
1.60884
1.53179
1.4457
1.36172
1.28452
1.21517
1.15333
1.09815
1.04871
1.00412
0.963481
0.926681
0.892936
0.861858
0.833105
0.806399
0.781507
0.758237
0.73643
0.715928
0.696708
0.677102
0.542909
0.586302
0.653251
0.752655
0.887374
1.03636
1.1638
1.24867
1.27483
1.26755
1.24265
1.20639
1.16637
1.12556
1.08551
1.04704
1.01048
0.975939
0.94331
0.912625
0.883725
0.856476
0.830771
0.8065
0.783561
0.761851
0.741284
0.72176
0.703358
0.684155
0.543083
0.585421
0.644551
0.721764
0.815428
0.915257
1.0051
1.07307
1.11219
1.12783
1.12654
1.11563
1.09605
1.07219
1.04591
1.01849
0.990732
0.963166
0.93613
0.909863
0.884486
0.860057
0.836595
0.8141
0.79256
0.771943
0.752227
0.733337
0.715499
0.696321
0.545714
0.594109
0.655225
0.725954
0.803072
0.880743
0.951104
1.00769
1.04674
1.0693
1.07795
1.07634
1.0684
1.05372
1.0352
1.01424
0.99181
0.968594
0.945067
0.921584
0.898393
0.875664
0.853508
0.831999
0.811186
0.791082
0.771721
0.753007
0.73541
0.715732
0.552156
0.616801
0.690541
0.766031
0.839449
0.907756
0.967545
1.01586
1.051
1.07335
1.08429
1.08551
1.08147
1.07119
1.056
1.03796
1.01793
0.99663
0.974578
0.952182
0.929746
0.907497
0.885597
0.864159
0.843276
0.822974
0.803356
0.784217
0.766479
0.745576
0.565514
0.663552
0.764396
0.855469
0.933349
0.998205
1.05082
1.09146
1.12035
1.13845
1.14659
1.14638
1.14155
1.13061
1.11518
1.09686
1.07647
1.05468
1.03201
1.00888
0.9856
0.962422
0.939531
0.917046
0.895102
0.873685
0.853037
0.832635
0.814322
0.79114
0.594044
0.759288
0.910241
1.02841
1.1153
1.17756
1.22196
1.25222
1.27075
1.28003
1.28003
1.27492
1.26362
1.24767
1.2282
1.20617
1.18232
1.15727
1.13149
1.10538
1.07924
1.0533
1.02776
1.0027
0.978349
0.954498
0.931779
0.908806
0.88942
0.8623
0.66451
0.975756
1.21576
1.36992
1.4615
1.51195
1.53934
1.55038
1.54975
1.54327
1.5289
1.5097
1.48651
1.4601
1.43127
1.40073
1.36906
1.33675
1.30421
1.27176
1.23968
1.20813
1.17736
1.14728
1.11837
1.08985
1.06349
1.03558
1.01448
0.980508
0.896594
1.57456
1.95133
2.11872
2.17903
2.18067
2.16562
2.13373
2.0954
2.0547
2.01131
1.96605
1.91934
1.87178
1.82388
1.77593
1.72825
1.68111
1.63479
1.58947
1.54541
1.50258
1.46144
1.4213
1.38364
1.3457
1.31268
1.27477
1.25051
1.20389
2.25129
3.88457
4.19843
4.15137
4.0169
3.84912
3.69707
3.55796
3.42994
3.31106
3.19878
3.09169
2.9885
2.89
2.79616
2.70598
2.61911
2.53544
2.45506
2.3779
2.30424
2.2335
2.16686
2.1018
2.04292
1.98148
1.93248
1.87091
1.83395
1.76386
25.3733
18.843
15.4885
13.6033
12.3919
11.5344
10.8654
10.3061
9.81551
9.37071
8.95994
8.57684
8.21786
7.88159
7.56624
7.27001
6.99179
6.73065
6.48569
6.25589
6.04058
5.8381
5.64924
5.46912
5.30553
5.1401
5.00555
4.84219
4.74078
4.55369
0.55492
0.650597
0.894194
2.53218
21.4909
6.06766
3.82722
2.82644
2.26443
1.90531
1.6557
1.47178
1.33048
1.21849
1.11199
1.01555
0.959807
0.911625
0.86949
0.832263
0.799068
0.769218
0.742177
0.717509
0.694913
0.672834
0.553702
0.642362
0.851994
2.18843
84.5939
18.8023
5.67894
3.64541
2.71925
2.19241
1.85396
1.61816
1.44406
1.30991
1.2032
1.09924
1.00433
0.951233
0.905067
0.864489
0.828473
0.796227
0.767122
0.74067
0.716469
0.694248
0.672469
0.551444
0.62965
0.788219
1.48504
6.36032
8.45152
4.52695
3.14216
2.43661
2.01228
1.73045
1.52985
1.37943
1.26201
1.16746
1.07259
0.984509
0.936056
0.893475
0.85568
0.82184
0.791301
0.763544
0.738161
0.714811
0.693273
0.672037
0.548697
0.616398
0.756062
1.09703
2.19733
6.31884
10.464
6.9359
4.39333
3.16895
2.48469
2.0582
1.77123
1.56649
1.41337
1.29432
1.19874
1.11994
1.0381
0.960375
0.917605
0.879453
0.845126
0.814013
0.785631
0.759587
0.735569
0.713312
0.692655
0.672098
0.545786
0.601491
0.703758
0.905806
1.33368
2.01524
2.56364
2.57254
2.31945
2.04267
1.81007
1.62423
1.47662
1.35811
1.26133
1.18081
1.1126
1.05384
1.00245
0.936477
0.899547
0.865967
0.835245
0.806992
0.780891
0.756669
0.734107
0.713013
0.693306
0.673442
0.543443
0.589705
0.666334
0.792124
0.976006
1.19898
1.37398
1.45081
1.44922
1.41361
1.35488
1.29222
1.23114
1.17389
1.12118
1.07296
1.02887
0.98846
0.951151
0.916967
0.885308
0.855904
0.828505
0.802896
0.778902
0.756368
0.735163
0.715156
0.696346
0.67706
0.542242
0.583246
0.645137
0.733965
0.850304
0.980463
1.09352
1.16831
1.20114
1.20424
1.19083
1.16427
1.13243
1.09826
1.06357
1.0294
0.996308
0.96456
0.9342
0.905355
0.877949
0.851932
0.827241
0.803806
0.781557
0.760418
0.740325
0.721193
0.703122
0.684174
0.542696
0.583679
0.64012
0.71224
0.797909
0.888953
0.971592
1.035
1.07466
1.09356
1.09655
1.08962
1.07449
1.05426
1.03106
1.00624
0.980656
0.954927
0.929431
0.904449
0.880143
0.856607
0.83389
0.812019
0.791001
0.770822
0.751474
0.732889
0.715315
0.696337
0.545514
0.593209
0.652943
0.721141
0.794484
0.867818
0.934339
0.988299
1.02666
1.04996
1.0603
1.06024
1.05442
1.04188
1.02509
1.00571
0.984658
0.962634
0.940133
0.917529
0.895087
0.872996
0.851382
0.830334
0.809912
0.79014
0.771061
0.752584
0.735197
0.715675
0.552071
0.616414
0.689529
0.76383
0.835364
0.901391
0.958998
1.00565
1.03998
1.06227
1.07371
1.07571
1.0724
1.06328
1.04908
1.03195
1.01278
0.992232
0.970853
0.949049
0.927132
0.905334
0.883824
0.862724
0.842132
0.822082
0.80268
0.783724
0.766156
0.745373
0.565493
0.663458
0.764107
0.854712
0.931739
0.995426
1.04677
1.08628
1.11441
1.13213
1.14027
1.14023
1.13568
1.12523
1.11031
1.0925
1.07261
1.05128
1.02905
1.00631
0.983384
0.960522
0.937911
0.915674
0.893948
0.872722
0.852243
0.831982
0.813808
0.79072
0.594051
0.759351
0.910367
1.02848
1.11507
1.17675
1.22039
1.24984
1.26773
1.27649
1.27626
1.27099
1.25964
1.24384
1.22458
1.2028
1.17922
1.15444
1.12893
1.10307
1.07717
1.05146
1.02612
1.00125
0.977061
0.953356
0.930774
0.907907
0.888644
0.861595
0.664525
0.975907
1.21616
1.37054
1.46214
1.5123
1.53921
1.54952
1.54844
1.54136
1.52642
1.50696
1.48359
1.45711
1.4283
1.39784
1.36628
1.33412
1.30175
1.26947
1.23756
1.20617
1.17555
1.14561
1.11684
1.08843
1.06218
1.03434
1.01339
0.979419
0.896608
1.57479
1.95199
2.11976
2.18023
2.18161
2.16622
2.13363
2.09466
2.05334
2.00936
1.9637
1.91673
1.86899
1.82099
1.77303
1.72539
1.67833
1.63212
1.58692
1.543
1.50031
1.45929
1.41927
1.38173
1.34387
1.31098
1.27302
1.24921
1.20205
2.2513
3.88493
4.19931
4.15238
4.01792
3.84961
3.69687
3.55693
3.42816
3.30863
3.19586
3.08844
2.98514
2.88642
2.79247
2.70228
2.61547
2.53191
2.45166
2.37464
2.30113
2.23053
2.16402
2.09906
2.0403
1.97888
1.93015
1.86773
1.83506
1.75757
25.3733
18.8425
15.4862
13.5986
12.3843
11.5244
10.8537
10.2934
9.80269
9.35838
8.94855
8.56664
8.2089
7.8737
7.55937
7.26404
6.98658
6.72603
6.48152
6.25203
6.03689
5.83448
5.64561
5.46538
5.30171
5.13581
5.00208
4.83418
4.74984
4.53426
0.551813
0.633074
0.826201
1.44664
5.35352
92.9317
7.6634
4.34483
3.05989
2.38789
1.98023
1.70832
1.51412
1.36806
1.25372
1.1614
1.0705
0.985888
0.937297
0.894614
0.856731
0.822812
0.792204
0.764386
0.738949
0.715552
0.693974
0.672683
0.550693
0.627017
0.797647
1.29765
3.84613
57.6826
33.2205
6.41619
3.94964
2.87726
2.28655
1.91704
1.66575
1.48398
1.34604
1.23733
1.14907
1.06007
0.976698
0.930206
0.889148
0.852535
0.819615
0.789798
0.762609
0.737675
0.714681
0.693427
0.672398
0.548704
0.616436
0.756174
1.09653
2.19491
6.40547
10.5197
6.96193
4.40374
3.17318
2.48696
2.05971
1.77225
1.56716
1.41382
1.29462
1.19894
1.12008
1.0382
0.96044
0.917655
0.879491
0.845156
0.814037
0.78565
0.759602
0.735582
0.713322
0.692663
0.672105
0.546324
0.604335
0.714007
0.940472
1.46083
2.33609
3.57886
3.46934
2.89234
2.4042
2.04564
1.78389
1.58876
1.43928
1.32157
1.22644
1.1477
1.08117
1.00972
0.940594
0.90238
0.867829
0.836356
0.807515
0.780946
0.756356
0.733509
0.712194
0.692304
0.672334
0.543986
0.592704
0.676796
0.823638
1.05166
1.47502
1.79244
1.89633
1.83655
1.71231
1.58215
1.46378
1.36103
1.27303
1.19756
1.13232
1.07536
1.02505
0.98016
0.920926
0.887504
0.856734
0.828271
0.801839
0.777206
0.754175
0.732579
0.71227
0.69321
0.673836
0.542216
0.583945
0.650226
0.751721
0.891793
1.05151
1.18748
1.26605
1.29001
1.2803
1.25088
1.2106
1.16724
1.12381
1.08183
1.04196
1.00442
0.969177
0.936025
0.90513
0.876107
0.848832
0.823161
0.798961
0.776122
0.754536
0.734108
0.714736
0.696458
0.677566
0.541485
0.57978
0.635978
0.713222
0.810543
0.917232
1.01303
1.08168
1.11956
1.13256
1.1287
1.11392
1.09124
1.06483
1.03656
1.00765
0.978843
0.950578
0.923077
0.896561
0.871067
0.846625
0.823234
0.800874
0.779514
0.759111
0.739628
0.720998
0.703356
0.684716
0.542281
0.581787
0.635226
0.701635
0.778428
0.858973
0.93296
0.99163
1.03129
1.05325
1.06074
1.05794
1.04814
1.03222
1.01277
0.991146
0.968302
0.944887
0.92134
0.897993
0.875053
0.852659
0.830899
0.809829
0.789482
0.769865
0.750987
0.732793
0.715561
0.696819
0.545327
0.592338
0.650605
0.715982
0.784979
0.853166
0.915025
0.965837
1.00312
1.02701
1.03903
1.04108
1.03722
1.02739
1.01275
0.99531
0.97598
0.955454
0.93425
0.912761
0.891272
0.869993
0.849072
0.828612
0.808691
0.789343
0.770624
0.752446
0.735331
0.715988
0.552019
0.616154
0.688707
0.761766
0.831207
0.894524
0.949462
0.994034
1.02722
1.04927
1.06116
1.06405
1.0615
1.05371
1.04071
1.02472
1.00659
0.986985
0.966448
0.945388
0.924123
0.902893
0.881878
0.861206
0.840984
0.821252
0.802125
0.783398
0.766048
0.745401
0.565508
0.66353
0.764135
0.854369
0.930521
0.992865
1.04267
1.08075
1.10784
1.12495
1.13296
1.13308
1.12875
1.11881
1.10448
1.08728
1.06798
1.04722
1.02551
1.00325
0.980768
0.958299
0.936039
0.914112
0.892661
0.871674
0.851409
0.831322
0.81333
0.790348
0.594091
0.759583
0.910864
1.02911
1.11549
1.17655
1.21928
1.24769
1.2647
1.27267
1.2721
1.26651
1.25497
1.23928
1.22023
1.1987
1.17542
1.15094
1.12575
1.10019
1.07459
1.04914
1.02406
0.999415
0.975434
0.951914
0.929504
0.906771
0.887667
0.860701
0.664563
0.976213
1.21695
1.37178
1.46356
1.51346
1.53978
1.54914
1.54741
1.53945
1.52368
1.50379
1.48007
1.45342
1.42455
1.39412
1.36267
1.33065
1.29845
1.26636
1.23465
1.20346
1.17304
1.14327
1.11467
1.08641
1.06031
1.03257
1.01177
0.977861
0.896633
1.57516
1.95305
2.12143
2.18223
2.18331
2.16747
2.13393
2.09405
2.05178
2.00694
1.96064
1.91321
1.86515
1.81695
1.7689
1.72127
1.67428
1.62818
1.58313
1.53937
1.49684
1.456
1.41612
1.37874
1.34101
1.30826
1.27038
1.24671
1.19959
2.25131
3.88545
4.20057
4.15382
4.01938
3.8503
3.69653
3.55536
3.42543
3.30489
3.19132
3.08333
2.97977
2.8807
2.78655
2.69629
2.60952
2.52608
2.44601
2.36918
2.29588
2.22548
2.15916
2.09435
2.03577
1.97443
1.92586
1.86347
1.83089
1.75339
25.3732
18.8418
15.4828
13.5917
12.3732
11.5095
10.8357
10.2736
9.78213
9.33806
8.92916
8.54858
8.19237
7.85857
7.54561
7.25154
6.97516
6.71552
6.47172
6.24276
6.028
5.82579
5.63704
5.45676
5.29305
5.1269
4.99305
4.82487
4.74023
4.52454
0.54819
0.613625
0.743929
1.02295
1.81026
3.95492
5.88211
4.05769
3.14713
2.53326
2.11882
1.82881
1.61811
1.45942
1.33589
1.2368
1.15526
1.08665
1.0278
0.956557
0.915207
0.878128
0.844616
0.814127
0.786229
0.76056
0.736828
0.714784
0.694298
0.673817
0.547317
0.609154
0.728275
0.978199
1.61336
3.18757
4.58036
3.45576
2.84152
2.3612
2.01387
1.76079
1.57177
1.42656
1.31185
1.21882
1.14159
1.07616
1.0197
0.94936
0.909589
0.873755
0.841233
0.811535
0.784272
0.759115
0.735795
0.714085
0.693873
0.673611
0.545795
0.601545
0.703991
0.906304
1.33423
2.01824
2.56855
2.58011
2.32492
2.04607
1.81226
1.62574
1.4777
1.35889
1.26189
1.18122
1.1129
1.05406
1.00261
0.936591
0.899636
0.866037
0.835301
0.807038
0.780927
0.756699
0.734131
0.713033
0.693323
0.673456
0.54399
0.592726
0.676873
0.823802
1.05191
1.47565
1.79387
1.89811
1.83804
1.7134
1.58292
1.46435
1.36144
1.27334
1.19779
1.1325
1.07549
1.02516
0.980238
0.92098
0.887546
0.856768
0.828298
0.801861
0.777225
0.75419
0.732591
0.71228
0.693219
0.673843
0.542295
0.584563
0.652922
0.760069
0.910554
1.15266
1.35183
1.45886
1.47433
1.43752
1.37754
1.31178
1.2473
1.18712
1.13208
1.08203
1.03653
0.995015
0.956981
0.905662
0.875931
0.848135
0.822072
0.797582
0.774522
0.752761
0.732198
0.712727
0.694366
0.675479
0.541119
0.578789
0.635944
0.717573
0.823506
0.940823
1.04575
1.11777
1.15403
1.16207
1.15313
1.13215
1.10458
1.07405
1.04243
1.01084
0.979917
0.949993
0.92118
0.893731
0.867489
0.842476
0.818649
0.795961
0.774359
0.753784
0.734185
0.715489
0.697784
0.679275
0.540866
0.576884
0.628099
0.695296
0.776472
0.863674
0.943936
1.00594
1.0458
1.06566
1.07002
1.0642
1.05052
1.03157
1.00962
0.985989
0.961555
0.936899
0.912387
0.888328
0.864864
0.842103
0.820101
0.798888
0.778475
0.758854
0.740018
0.721919
0.704736
0.686385
0.542006
0.580449
0.631404
0.692826
0.761714
0.832711
0.898403
0.952233
0.991022
1.01501
1.02624
1.02719
1.02195
1.01047
0.994724
0.976368
0.956341
0.935328
0.913821
0.892194
0.870698
0.849515
0.82877
0.808548
0.78891
0.769884
0.751501
0.733714
0.716846
0.698313
0.545274
0.592003
0.649287
0.712346
0.777452
0.840778
0.898063
0.945614
0.98147
1.00552
1.01883
1.0228
1.02063
1.01339
1.0009
0.98542
0.96784
0.948855
0.928994
0.908665
0.888172
0.867744
0.847547
0.827701
0.8083
0.789392
0.771046
0.753174
0.736349
0.717152
0.552088
0.616393
0.688845
0.761119
0.828846
0.889686
0.941964
0.984336
1.01615
1.03767
1.04975
1.05336
1.05144
1.04481
1.03296
1.01808
1.00097
0.982314
0.962625
0.942319
0.921719
0.901072
0.880563
0.860328
0.840484
0.821074
0.802228
0.783728
0.766613
0.746068
0.565624
0.664042
0.765043
0.855349
0.930989
0.992205
1.04052
1.07707
1.10294
1.11921
1.12687
1.12697
1.12272
1.11309
1.09926
1.08259
1.06383
1.0436
1.02239
1.0006
0.978543
0.956462
0.934551
0.912934
0.891758
0.87101
0.85096
0.831043
0.813247
0.790339
0.594202
0.760179
0.91214
1.03096
1.1175
1.17814
1.22001
1.24728
1.26325
1.27018
1.2691
1.26295
1.25105
1.23528
1.21628
1.1949
1.17183
1.1476
1.12267
1.09739
1.07205
1.04686
1.02202
0.997604
0.973831
0.950494
0.92826
0.905658
0.886725
0.859827
0.664645
0.976796
1.2184
1.37409
1.46638
1.51621
1.54195
1.55022
1.54769
1.5385
1.52183
1.50118
1.47689
1.44985
1.42076
1.39023
1.35878
1.32684
1.29477
1.26283
1.2313
1.20029
1.17005
1.14046
1.11203
1.08393
1.05799
1.03037
1.00969
0.975908
0.896677
1.57574
1.95464
2.12397
2.18534
2.18619
2.16984
2.13516
2.0941
2.05054
2.00458
1.95735
1.90921
1.86061
1.81204
1.76378
1.71604
1.66906
1.62303
1.5781
1.5345
1.49214
1.45147
1.41177
1.37456
1.33698
1.30438
1.26671
1.24282
1.19638
2.25132
3.88612
4.20221
4.15569
4.02128
3.8512
3.69604
3.55321
3.42166
3.29967
3.18493
3.07605
2.97199
2.87237
2.77787
2.68745
2.60067
2.51734
2.43745
2.36085
2.2878
2.21764
2.15158
2.08699
2.02863
1.9675
1.91891
1.85756
1.82071
1.75084
25.3732
18.8409
15.4786
13.5827
12.3585
11.4892
10.8107
10.2454
9.752
9.30737
8.89892
8.51947
8.16477
7.83249
7.52111
7.22857
6.9536
6.69519
6.45243
6.2243
6.0102
5.80847
5.62007
5.43998
5.27637
5.11044
4.97546
4.81176
4.70843
4.52184
0.54511
0.597676
0.689596
0.855706
1.12339
1.59347
1.96539
1.78333
1.71116
1.60787
1.50221
1.4041
1.31662
1.23973
1.17232
1.11295
1.06032
1.01327
0.970689
0.932368
0.897418
0.865379
0.835852
0.808522
0.783121
0.759436
0.737288
0.716508
0.697058
0.677266
0.544503
0.59475
0.680852
0.830777
1.06416
1.47759
1.80391
1.65053
1.61255
1.53458
1.44775
1.36325
1.28568
1.21606
1.15401
1.09867
1.04911
1.00443
0.963725
0.926872
0.893087
0.861979
0.833202
0.806478
0.781571
0.75829
0.736473
0.715964
0.696738
0.677126
0.543452
0.589752
0.666511
0.792686
0.976859
1.2004
1.37591
1.45298
1.45127
1.4153
1.35619
1.29323
1.23193
1.17451
1.12166
1.07333
1.02917
0.988691
0.951333
0.917111
0.885423
0.855997
0.82858
0.802958
0.778953
0.75641
0.735198
0.715184
0.696371
0.67708
0.542221
0.583973
0.650314
0.751941
0.892143
1.05209
1.18831
1.267
1.29093
1.28112
1.25155
1.21114
1.16767
1.12416
1.08211
1.04218
1.00459
0.969317
0.936138
0.905221
0.87618
0.848892
0.82321
0.799001
0.776155
0.754563
0.734131
0.714755
0.696474
0.677579
0.541121
0.5788
0.635975
0.717642
0.82362
0.941007
1.04601
1.11806
1.15433
1.16234
1.15337
1.13235
1.10475
1.07419
1.04254
1.01093
0.979992
0.950054
0.92123
0.893771
0.867522
0.842503
0.818671
0.79598
0.774375
0.753797
0.734196
0.715498
0.697792
0.679281
0.540479
0.57557
0.626341
0.6942
0.77735
0.867279
0.950077
1.01337
1.05322
1.07209
1.07508
1.06792
1.05263
1.03243
1.00945
0.98497
0.959861
0.93469
0.909791
0.885462
0.861796
0.838877
0.81676
0.795471
0.775014
0.755374
0.736537
0.718456
0.701282
0.683047
0.540647
0.575599
0.623642
0.683769
0.753315
0.826379
0.894473
0.949961
0.989346
1.01299
1.02334
1.02325
1.01692
1.00416
0.987579
0.968535
0.947974
0.926562
0.904771
0.882962
0.861363
0.840143
0.819414
0.799251
0.779705
0.760796
0.742544
0.724915
0.708153
0.689984
0.542082
0.580494
0.630312
0.688471
0.751608
0.81527
0.874119
0.923425
0.960617
0.98543
0.999063
1.00313
1.00078
0.993266
0.980695
0.965175
0.94763
0.928759
0.909083
0.889
0.868803
0.848711
0.828878
0.809419
0.790415
0.771913
0.753965
0.736524
0.719985
0.701558
0.545525
0.592867
0.650277
0.712275
0.774772
0.834346
0.887745
0.932276
0.966458
0.990135
1.00409
1.00943
1.00843
1.00316
0.992493
0.978651
0.962561
0.944901
0.926203
0.906882
0.887256
0.867568
0.848001
0.828688
0.809736
0.791203
0.773172
0.755548
0.73898
0.719829
0.55241
0.617665
0.690974
0.763473
0.830426
0.889557
0.939655
0.979957
1.01025
1.03091
1.04276
1.04668
1.04508
1.03917
1.02816
1.01412
0.997816
0.979905
0.9609
0.941208
0.921153
0.900983
0.88089
0.861015
0.84148
0.822333
0.803714
0.785385
0.768479
0.747941
0.565937
0.665416
0.767666
0.858926
0.934818
0.995479
1.04263
1.07776
1.10231
1.11748
1.12445
1.12424
1.11976
1.11007
1.09645
1.08008
1.06165
1.04176
1.0209
0.999447
0.977705
0.955915
0.934268
0.912888
0.891924
0.871359
0.85148
0.831679
0.814066
0.791146
0.594453
0.761455
0.914851
1.03504
1.12239
1.18309
1.22433
1.2505
1.2653
1.27091
1.2691
1.26202
1.24952
1.23332
1.2141
1.19264
1.16957
1.14542
1.12061
1.09548
1.07031
1.04529
1.02062
0.996359
0.972742
0.949542
0.927451
0.904936
0.886173
0.859273
0.66481
0.977879
1.22099
1.37822
1.47158
1.52168
1.54699
1.5541
1.55064
1.53989
1.52206
1.50031
1.47514
1.44742
1.41784
1.38699
1.35535
1.32332
1.29124
1.25935
1.22791
1.19701
1.1669
1.13745
1.10917
1.08119
1.05539
1.02786
1.00733
0.973612
0.896756
1.57664
1.95706
2.12782
2.19013
2.19091
2.17403
2.13804
2.09552
2.05031
2.00287
1.95436
1.90519
1.85577
1.80658
1.75789
1.7099
1.66278
1.61674
1.57186
1.52836
1.48613
1.44563
1.40609
1.36906
1.33163
1.29919
1.26171
1.23776
1.19171
2.25133
3.88698
4.20428
4.15807
4.0237
3.85234
3.69537
3.55037
3.41667
3.29268
3.17628
3.0661
2.96119
2.8608
2.76575
2.67502
2.58814
2.50486
2.42514
2.34878
2.27603
2.20616
2.14043
2.07611
2.01806
1.95718
1.90879
1.84789
1.81045
1.74168
25.3732
18.8399
15.4734
13.5714
12.3395
11.4625
10.7771
10.2064
9.70942
9.26291
8.85396
8.47503
8.12154
7.79072
7.48102
7.19025
6.917
6.66019
6.41888
6.19202
5.97901
5.77816
5.59055
5.41098
5.24796
5.08219
4.94772
4.78402
4.68031
4.49486
0.543304
0.588127
0.65822
0.764757
0.911947
1.07635
1.21415
1.30181
1.32127
1.30746
1.27417
1.23177
1.18667
1.14178
1.0985
1.05745
1.01884
0.982651
0.948696
0.916938
0.887174
0.859216
0.832928
0.808178
0.784844
0.762808
0.741972
0.722224
0.703636
0.684282
0.542916
0.586338
0.653384
0.753176
0.888342
1.03787
1.16566
1.25071
1.27676
1.26925
1.24402
1.20749
1.16726
1.12627
1.08608
1.0475
1.01085
0.976234
0.943549
0.912818
0.883882
0.856604
0.830876
0.806587
0.783633
0.76191
0.741334
0.721802
0.703394
0.684184
0.542249
0.583282
0.645255
0.734294
0.850869
0.981337
1.09466
1.16959
1.20241
1.20537
1.19181
1.16507
1.13309
1.09879
1.064
1.02975
0.996595
0.964793
0.93439
0.90551
0.878076
0.852036
0.827327
0.803877
0.781616
0.760468
0.740367
0.721228
0.703152
0.684198
0.54149
0.579806
0.636053
0.713397
0.810837
0.917682
1.01363
1.08237
1.12027
1.13321
1.12929
1.11442
1.09166
1.06518
1.03684
1.00788
0.979038
0.95074
0.92321
0.896671
0.871157
0.8467
0.823296
0.800926
0.779557
0.759148
0.739659
0.721024
0.703378
0.684734
0.540869
0.576898
0.628137
0.695376
0.776605
0.863876
0.944205
1.00626
1.04613
1.06598
1.07032
1.06446
1.05074
1.03175
1.00978
0.986123
0.961667
0.936993
0.912465
0.888393
0.864919
0.842148
0.820139
0.798921
0.778502
0.758877
0.740038
0.721935
0.704751
0.686397
0.540648
0.575604
0.623655
0.683796
0.753359
0.826446
0.894561
0.950065
0.989457
1.0131
1.02345
1.02335
1.01701
1.00424
0.987642
0.968589
0.94802
0.926601
0.904804
0.88299
0.861387
0.840163
0.81943
0.799265
0.779717
0.760806
0.742553
0.724923
0.70816
0.68999
0.54114
0.577094
0.624693
0.681407
0.744014
0.8079
0.867353
0.917262
0.95486
0.979842
0.993471
0.997456
0.99497
0.987255
0.974602
0.959004
0.94141
0.922523
0.902861
0.882823
0.862696
0.842691
0.822958
0.803608
0.78472
0.766339
0.748511
0.731201
0.714751
0.696564
0.542783
0.582964
0.633833
0.69123
0.751332
0.810279
0.864143
0.909611
0.944797
0.969351
0.984031
0.990005
0.989296
0.984423
0.974236
0.960746
0.945019
0.927738
0.909431
0.89051
0.871291
0.852014
0.832854
0.813946
0.79539
0.777248
0.759587
0.742354
0.726048
0.707535
0.546318
0.595856
0.655249
0.718123
0.779899
0.837327
0.887928
0.929869
0.962221
0.984972
0.998805
1.00466
1.0042
0.999942
0.990516
0.977691
0.962577
0.945808
0.927901
0.909268
0.890232
0.871044
0.851894
0.832926
0.814256
0.795947
0.7781
0.760593
0.744201
0.724917
0.553189
0.620778
0.696579
0.770931
0.838551
0.897098
0.945755
0.984296
1.01298
1.0324
1.04347
1.04708
1.04537
1.03947
1.02879
1.0151
0.999186
0.981658
0.963017
0.943661
0.923906
0.903999
0.884133
0.864449
0.845074
0.826053
0.807546
0.789268
0.772507
0.751807
0.566612
0.668339
0.773297
0.86695
0.944301
1.00527
1.05177
1.08566
1.10877
1.12253
1.12836
1.12748
1.12225
1.11195
1.09812
1.08162
1.06316
1.04329
1.0225
1.00113
0.979481
0.95779
0.936241
0.91495
0.894069
0.873569
0.853762
0.833971
0.816496
0.793413
0.594963
0.763971
0.920091
1.04291
1.13212
1.19357
1.23455
1.25966
1.27316
1.2771
1.27423
1.26574
1.25221
1.23514
1.21528
1.19337
1.16998
1.14561
1.12067
1.09547
1.07027
1.04526
1.02062
0.996396
0.972832
0.949671
0.927653
0.905131
0.886522
0.85949
0.665131
0.979877
1.22559
1.38543
1.4807
1.53156
1.55665
1.56251
1.55794
1.54527
1.52587
1.50258
1.47609
1.44728
1.41685
1.38534
1.35322
1.32086
1.28855
1.25653
1.22502
1.19411
1.16403
1.13462
1.10641
1.07849
1.0528
1.02529
1.00493
0.971169
0.896904
1.57814
1.96091
2.13385
2.19764
2.19855
2.18108
2.14359
2.09924
2.05192
2.00255
1.95229
1.90167
1.85104
1.80091
1.75151
1.70302
1.65559
1.60937
1.56442
1.52093
1.47877
1.43839
1.39897
1.36212
1.32481
1.29258
1.25521
1.23134
1.18555
2.25136
3.88815
4.20706
4.16123
4.02691
3.85387
3.6945
3.54667
3.41012
3.28346
3.1648
3.05279
2.94657
2.84511
2.74927
2.65805
2.57094
2.48765
2.40808
2.33196
2.25954
2.19002
2.12471
2.06073
2.00312
1.94252
1.89452
1.83395
1.79659
1.72829
25.3732
18.8386
15.467
13.5569
12.3148
11.4271
10.7318
10.153
9.65013
9.19991
8.78912
8.40982
8.05705
7.72752
7.41956
7.13079
6.85965
6.60493
6.36561
6.14059
5.92926
5.72989
5.54365
5.36514
5.2033
5.03818
4.90473
4.74154
4.63807
4.45378
0.543319
0.58648
0.647268
0.727744
0.826622
0.932465
1.02695
1.09724
1.1355
1.14885
1.14504
1.13107
1.10896
1.0829
1.05476
1.02577
0.996732
0.968087
0.940148
0.91313
0.887128
0.862181
0.838286
0.815431
0.793589
0.77272
0.752794
0.733726
0.715738
0.696439
0.543089
0.585449
0.644637
0.722017
0.815939
0.916049
1.0061
1.0742
1.11332
1.12887
1.12747
1.11642
1.09671
1.07275
1.04638
1.01887
0.991052
0.963432
0.93635
0.910046
0.884637
0.860183
0.8367
0.814188
0.792634
0.772005
0.75228
0.733381
0.715537
0.696352
0.542702
0.583706
0.640199
0.712434
0.798261
0.889488
0.972284
1.03579
1.07548
1.09434
1.09724
1.09024
1.07501
1.0547
1.03143
1.00655
0.980917
0.955145
0.929613
0.904601
0.88027
0.856713
0.833979
0.812094
0.791064
0.770875
0.751519
0.732927
0.715348
0.696363
0.542285
0.581808
0.635282
0.70176
0.778643
0.859296
0.933382
0.992122
1.0318
1.05375
1.06121
1.05837
1.04851
1.03253
1.01304
0.991373
0.968494
0.945049
0.921476
0.898108
0.87515
0.85274
0.830967
0.809887
0.789531
0.769907
0.751023
0.732823
0.715587
0.69684
0.542009
0.580463
0.631437
0.692896
0.761832
0.832886
0.898632
0.952504
0.991313
1.0153
1.02652
1.02744
1.02218
1.01067
0.994894
0.976514
0.956466
0.935435
0.913912
0.892271
0.870763
0.84957
0.828817
0.808588
0.788944
0.769913
0.751526
0.733735
0.716864
0.698328
0.542083
0.580501
0.630329
0.688504
0.751664
0.815351
0.874226
0.923552
0.960756
0.985571
0.9992
1.00326
1.0009
0.99337
0.980787
0.965255
0.947699
0.928819
0.909135
0.889044
0.868841
0.848743
0.828906
0.809442
0.790435
0.771931
0.75398
0.736537
0.719996
0.701567
0.542784
0.582967
0.633839
0.691241
0.751351
0.810307