/*--------------------------------*- C++ -*----------------------------------*\
  =========                 |
  \\      /  F ield         | OpenFOAM: The Open Source CFD Toolbox
   \\    /   O peration     | Website:  https://openfoam.org
    \\  /    A nd           | Version:  10
     \\/     M anipulation  |
\*---------------------------------------------------------------------------*/
FoamFile
{
    format      ascii;
    class       volScalarField;
    location    "800";
    object      p;
}
// * * * * * * * * * * * * * * * * * * * * * * * * * * * * * * * * * * * * * //

dimensions      [0 2 -2 0 0 0 0];

internalField   nonuniform List<scalar> 
27507
(
122.55
192.096
293.658
508.787
-49.5343
-31.5426
-19.3562
-11.5192
-6.47688
-3.30737
-1.374
-0.233311
0.413114
0.861674
0.983312
0.833533
0.83542
0.787426
0.715489
0.642406
0.571467
0.499178
0.458738
0.323526
0.695106
106.332
159.029
260.482
437.926
-48.34
-30.0224
-18.3165
-10.8657
-6.0989
-3.10186
-1.26765
-0.18135
0.433318
0.84061
0.974805
0.846827
0.83523
0.784693
0.711767
0.637832
0.566325
0.495058
0.449043
0.335682
0.641707
86.9443
110.822
193.542
316.778
-67.6513
-41.8634
-25.3683
-15.4906
-9.22233
-5.185
-2.61493
-1.01984
-0.0634
0.479485
0.814337
0.949016
0.845593
0.823216
0.769049
0.696512
0.623173
0.55235
0.482208
0.433999
0.32653
0.600772
69.7088
72.7578
113.232
184.973
206.571
9.83511
-114.845
-59.5036
-33.2388
-19.8211
-12.0403
-7.17057
-4.0232
-1.99135
-0.707123
0.0765029
0.526902
0.758159
0.90209
0.830846
0.800207
0.742525
0.671625
0.600041
0.530836
0.462343
0.412738
0.309351
0.547159
53.5616
52.0138
59.8277
71.9588
78.2039
14.8764
-61.2462
-58.0636
-35.8916
-21.6448
-13.1221
-7.91306
-4.62786
-2.50853
-1.13584
-0.261214
0.275745
0.569233
0.695354
0.837115
0.797475
0.762692
0.703422
0.635812
0.567551
0.501305
0.435464
0.38529
0.2866
0.482657
39.292
38.1769
38.2591
38.9847
21.5115
0.355368
-25.5116
-25.8419
-18.5659
-11.8196
-7.34082
-4.39196
-2.43489
-1.14744
-0.312716
0.212408
0.525633
0.683071
0.777185
0.776566
0.749942
0.707748
0.651166
0.588908
0.525685
0.463927
0.401997
0.352334
0.259514
0.411472
27.9494
26.7981
25.289
22.2098
12.4481
-3.80774
-12.8537
-15.5336
-11.7103
-8.0101
-5.24884
-3.21918
-1.7922
-0.82172
-0.177107
0.236264
0.487417
0.62075
0.674543
0.698454
0.674998
0.635871
0.586219
0.531312
0.474936
0.419242
0.362629
0.314827
0.229437
0.337586
19.6974
18.4378
16.3297
12.3474
5.71583
-2.74942
-7.90266
-9.31626
-7.5494
-5.50149
-3.73617
-2.33466
-1.30353
-0.580778
-0.0893603
0.231732
0.42991
0.539398
0.590017
0.601981
0.583222
0.551066
0.509933
0.463925
0.416007
0.367898
0.318101
0.273764
0.197643
0.264796
14.0886
12.7501
10.4543
6.62465
1.93393
-2.86479
-5.55864
-6.22689
-5.25005
-3.96707
-2.77362
-1.78263
-1.02385
-0.474207
-0.0907614
0.166468
0.329745
0.424131
0.471218
0.485103
0.475706
0.453423
0.42281
0.387378
0.349462
0.310423
0.269002
0.229957
0.165171
0.196417
10.5766
9.14031
6.77382
3.4033
0.0613674
-2.80001
-4.27044
-4.53603
-3.89499
-3.0279
-2.18808
-1.46663
-0.896283
-0.468293
-0.160297
0.0533527
0.194867
0.282301
0.331068
0.352429
0.354277
0.343937
0.325585
0.302181
0.275636
0.247075
0.215607
0.183839
0.132667
0.135021
8.64652
7.09592
4.70864
1.8633
-0.579817
-2.40585
-3.29555
-3.4173
-3.00176
-2.41598
-1.82422
-1.29813
-0.866765
-0.530164
-0.277981
-0.0951612
0.033024
0.119065
0.173716
0.205349
0.220119
0.223401
0.218706
0.208539
0.19455
0.177743
0.157759
0.135324
0.100232
0.0822751
7.82849
6.19252
3.90105
1.58473
-0.278595
-1.61058
-2.30684
-2.47989
-2.29107
-1.94948
-1.56807
-1.20623
-0.891372
-0.631916
-0.426362
-0.267948
-0.14865
-0.0609761
0.00186891
0.0455328
0.074465
0.09252
0.102479
0.106464
0.105956
0.101956
0.0948262
0.0837089
0.0672593
0.0388107
7.69348
6.08631
4.08862
2.25548
0.730051
-0.438779
-1.17953
-1.53812
-1.60946
-1.51651
-1.34229
-1.13872
-0.936208
-0.751164
-0.590343
-0.454887
-0.343341
-0.253164
-0.181353
-0.124943
-0.081288
-0.0478911
-0.0227341
-0.00406758
0.00947468
0.0189664
0.0257127
0.0276182
0.0321888
0.00402758
7.81524
6.48091
4.96331
3.51763
2.16458
0.987226
0.0840252
-0.528923
-0.886497
-1.05642
-1.09894
-1.06071
-0.976475
-0.8702
-0.757319
-0.647148
-0.544947
-0.45334
-0.373231
-0.304469
-0.246337
-0.197702
-0.157358
-0.123987
-0.0963079
-0.0731897
-0.0521757
-0.0360773
-0.00907636
-0.0252874
7.75068
7.01175
6.00832
4.86271
3.63403
2.42942
1.3644
0.507008
-0.12471
-0.552596
-0.813205
-0.9455
-0.985707
-0.964214
-0.904546
-0.823948
-0.73448
-0.64416
-0.557973
-0.478732
-0.40775
-0.34533
-0.291084
-0.244261
-0.203615
-0.16807
-0.134171
-0.103932
-0.0565409
-0.0522441
7.62235
7.32028
6.68811
5.78535
4.70291
3.54218
2.41556
1.41769
0.602526
-0.0172287
-0.455044
-0.737608
-0.896799
-0.964086
-0.966967
-0.927623
-0.862992
-0.785417
-0.703439
-0.622638
-0.546394
-0.476525
-0.413665
-0.357806
-0.308062
-0.26355
-0.220592
-0.18004
-0.117373
-0.0890828
106.278
158.946
260.397
436.588
-48.1293
-29.899
-18.2784
-10.8546
-6.09536
-3.10055
-1.26711
-0.181101
0.433432
0.840674
0.974873
0.846884
0.835264
0.784715
0.711783
0.637843
0.566332
0.495063
0.449044
0.335682
0.641692
94.6536
131.299
228.873
380.505
-46.2304
-28.2021
-17.173
-10.1944
-5.72457
-2.90214
-1.16562
-0.132266
0.452983
0.823804
0.963923
0.855424
0.832644
0.779993
0.706627
0.632217
0.560436
0.490135
0.439574
0.34803
0.585635
79.6024
93.0009
168.726
268.09
405.313
-70.375
-39.4346
-23.8308
-14.5306
-8.65298
-4.86391
-2.4424
-0.931949
-0.0221376
0.49533
0.800659
0.936878
0.84875
0.818074
0.762575
0.690035
0.616619
0.545815
0.476731
0.424604
0.337959
0.546827
64.2225
64.8187
92.7732
159.673
178.196
53.1632
-116.66
-56.0136
-31.5557
-18.8139
-11.4023
-6.77611
-3.79115
-1.86202
-0.639531
0.108494
0.539218
0.75107
0.889552
0.827508
0.791858
0.733823
0.663356
0.592183
0.523369
0.456119
0.403283
0.318941
0.498075
49.6563
48.473
53.3281
75.034
62.6504
14.4872
-51.8798
-51.9358
-33.3131
-20.4365
-12.4647
-7.52551
-4.39656
-2.37511
-1.06397
-0.226768
0.288633
0.573269
0.690203
0.826618
0.788209
0.751242
0.692565
0.625783
0.558387
0.492892
0.428487
0.375813
0.294094
0.439248
36.6109
35.5396
34.6382
31.3329
18.4289
0.802265
-22.3014
-23.1619
-16.9437
-10.9723
-6.84978
-4.10046
-2.266
-1.05481
-0.267769
0.2284
0.524491
0.674697
0.768702
0.763311
0.735978
0.693915
0.638374
0.57733
0.515358
0.454662
0.394342
0.342925
0.264806
0.374254
26.1799
25.0042
23.0478
19.0063
10.6047
-3.72517
-11.6576
-14.0764
-10.8635
-7.50227
-4.92571
-3.02213
-1.67697
-0.758883
-0.148286
0.243704
0.481766
0.607814
0.657821
0.680275
0.658402
0.620187
0.571907
0.518545
0.463691
0.409308
0.354434
0.305606
0.23253
0.306785
18.5668
17.3482
15.1584
10.9945
4.92136
-2.74763
-7.37708
-8.65477
-7.12404
-5.22384
-3.5616
-2.23407
-1.25097
-0.558818
-0.0870616
0.22212
0.413547
0.519784
0.568699
0.581647
0.564715
0.534033
0.494632
0.450393
0.404173
0.357549
0.30956
0.264872
0.198662
0.240302
13.3796
12.1204
9.86977
6.08844
1.67134
-2.74896
-5.26544
-5.87845
-5.00934
-3.80886
-2.67667
-1.73071
-1.00227
-0.471985
-0.100766
0.149303
0.308895
0.402012
0.449184
0.464145
0.456475
0.435946
0.407196
0.3736
0.337438
0.299971
0.260352
0.221545
0.164353
0.177832
10.1319
8.79365
6.51216
3.24563
0.0438235
-2.64973
-4.06104
-4.32097
-3.74368
-2.92888
-2.1296
-1.43861
-0.889119
-0.474721
-0.17509
0.0337975
0.173076
0.260025
0.309366
0.331927
0.33546
0.326886
0.310341
0.288707
0.263864
0.236869
0.207117
0.176067
0.130345
0.12172
8.35717
6.91417
4.62379
1.87735
-0.488224
-2.24544
-3.1239
-3.2623
-2.8915
-2.3438
-1.78237
-1.27925
-0.863833
-0.537883
-0.292315
-0.113277
0.013129
0.0987826
0.153928
0.186613
0.202806
0.207631
0.204528
0.195943
0.183497
0.168158
0.149723
0.128362
0.0968205
0.0734829
7.624
6.09888
3.9009
1.65916
-0.157822
-1.46133
-2.16221
-2.35661
-2.201
-1.88877
-1.53138
-1.18799
-0.886465
-0.636197
-0.436613
-0.281828
-0.164462
-0.077512
-0.01458
0.0297074
0.0596182
0.078828
0.0900385
0.0953105
0.096097
0.0933832
0.087561
0.0777389
0.0632425
0.0336786
7.53107
6.03176
4.11138
2.32819
0.834345
-0.318444
-1.06371
-1.43858
-1.53292
-1.46175
-1.30618
-1.11756
-0.926438
-0.749654
-0.594578
-0.462937
-0.353747
-0.264843
-0.193528
-0.13707
-0.0929834
-0.0589162
-0.0329319
-0.013344
0.00117676
0.0117101
0.0194703
0.022751
0.0280366
0.00166878
7.67245
6.42899
4.9648
3.55362
2.22759
1.06686
0.166541
-0.453041
-0.823215
-1.00704
-1.06272
-1.03595
-0.96107
-0.862091
-0.754691
-0.648494
-0.549053
-0.459257
-0.380234
-0.312015
-0.254021
-0.205237
-0.164534
-0.130657
-0.102369
-0.0785191
-0.0568314
-0.0394586
-0.012609
-0.0255707
7.63941
6.93769
5.9668
4.84825
3.64498
2.461
1.40867
0.556322
-0.0765072
-0.509185
-0.776466
-0.91605
-0.963288
-0.948076
-0.893734
-0.817468
-0.731393
-0.643634
-0.559303
-0.481341
-0.411175
-0.349206
-0.295131
-0.248258
-0.207405
-0.17148
-0.137227
-0.106093
-0.0591469
-0.0515796
7.5275
7.23176
6.61748
5.73367
4.67113
3.53021
2.42047
1.43483
0.626957
0.0103705
-0.427362
-0.711936
-0.874337
-0.94533
-0.951936
-0.916047
-0.854442
-0.779403
-0.69947
-0.620257
-0.545199
-0.476171
-0.413867
-0.358324
-0.308706
-0.26414
-0.22106
-0.180093
-0.117695
-0.0877867
86.8991
110.691
193.389
315.697
-67.1624
-41.2462
-25.1596
-15.4156
-9.19527
-5.17474
-2.61071
-1.01794
-0.0624726
0.479958
0.81457
0.949197
0.845742
0.823302
0.769106
0.696551
0.6232
0.552368
0.482218
0.434001
0.326527
0.60073
79.5777
92.9159
168.353
266.972
372.119
-69.4293
-39.4732
-23.7763
-14.4943
-8.63699
-4.85729
-2.43955
-0.930633
-0.0214856
0.495669
0.800822
0.936989
0.84884
0.818126
0.762609
0.690058
0.616635
0.545826
0.476737
0.424605
0.337955
0.546802
68.7297
70.4961
122.98
187.753
228.548
-61.2872
-34.3439
-20.5101
-12.4436
-7.40009
-4.14875
-2.05485
-0.734737
0.0686259
0.527063
0.777041
0.907824
0.835462
0.799534
0.742614
0.671508
0.599592
0.530163
0.46257
0.409374
0.327568
0.509936
55.7971
54.428
66.4354
111.707
94.1016
28.1214
-86.1201
-84.4775
-48.1314
-27.7441
-16.5623
-9.99576
-5.91255
-3.28501
-1.58317
-0.498566
0.16957
0.554989
0.727466
0.858297
0.806926
0.76859
0.710789
0.642434
0.57334
0.50638
0.440997
0.38769
0.308268
0.463819
43.3548
41.9876
43.1451
45.3935
49.0389
3.43947
-36.169
-40.2557
-28.1087
-17.8695
-11.0591
-6.70495
-3.91139
-2.09799
-0.917998
-0.16148
0.306565
0.565975
0.662422
0.792743
0.760801
0.723447
0.666544
0.6025
0.537726
0.474552
0.412409
0.359914
0.283199
0.408149
32.25
31.0949
29.8513
27.0356
13.9965
-3.90172
-17.4272
-19.2091
-14.4399
-9.58674
-6.07209
-3.65462
-2.01768
-0.92767
-0.215139
0.236496
0.507396
0.64584
0.73338
0.726986
0.702573
0.662516
0.60984
0.552027
0.493124
0.435151
0.377448
0.326859
0.253798
0.346654
23.335
22.2129
20.2937
16.1275
8.17221
-2.5917
-10.162
-11.8295
-9.45445
-6.69171
-4.44346
-2.74425
-1.528
-0.690376
-0.12985
0.232111
0.45328
0.571345
0.618545
0.63989
0.621315
0.586342
0.541558
0.491781
0.440307
0.388946
0.336976
0.289574
0.221542
0.282849
16.7645
15.6656
13.6219
9.61163
3.92894
-2.47109
-6.55272
-7.5875
-6.40152
-4.77572
-3.2924
-2.08811
-1.18482
-0.542224
-0.10109
0.190425
0.372764
0.475596
0.524296
0.539021
0.525831
0.498915
0.46335
0.422885
0.380203
0.33678
0.291877
0.249118
0.187848
0.220026
12.2608
11.1456
9.09128
5.5393
1.42747
-2.48067
-4.77163
-5.31625
-4.6031
-3.54886
-2.52466
-1.65626
-0.979895
-0.482008
-0.130474
0.108683
0.263312
0.355405
0.403863
0.421531
0.417604
0.400941
0.376057
0.346203
0.313562
0.279329
0.242853
0.206344
0.153881
0.161073
9.44355
8.25883
6.17917
3.12386
0.125046
-2.34491
-3.68645
-3.95623
-3.47908
-2.75957
-2.03408
-1.39746
-0.884932
-0.494213
-0.208751
-0.00758148
0.128472
0.215204
0.266165
0.291441
0.298405
0.293433
0.280491
0.262354
0.240836
0.216954
0.190262
0.161721
0.1204
0.108236
7.92428
6.63755
4.53602
1.9623
-0.274874
-1.93756
-2.80831
-2.98587
-2.69148
-2.21457
-1.70933
-1.24828
-0.862108
-0.555471
-0.321788
-0.149409
-0.0259783
0.0592135
0.11551
0.150343
0.169309
0.17715
0.177133
0.1716
0.162115
0.149617
0.134016
0.1152
0.0876097
0.0629705
7.32849
5.95608
3.92272
1.8117
0.0778264
-1.18377
-1.89551
-2.13112
-2.03405
-1.77633
-1.46365
-1.15458
-0.877947
-0.644827
-0.456419
-0.308418
-0.194652
-0.109053
-0.0459462
-0.000478299
0.0312655
0.0526613
0.0662378
0.0739468
0.0771803
0.0768945
0.0735447
0.0661243
0.0550042
0.0258157
7.2975
5.93748
4.14739
2.45806
1.02393
-0.100957
-0.852505
-1.25576
-1.39007
-1.35848
-1.2373
-1.0765
-0.906729
-0.745591
-0.6015
-0.477221
-0.372635
-0.286287
-0.216044
-0.159609
-0.114812
-0.0795564
-0.052075
-0.0307974
-0.0144652
-0.00203535
0.007717
0.0130878
0.0210526
-0.00385064
7.45987
6.32603
4.95275
3.6091
2.33358
1.204
0.312361
-0.316092
-0.706219
-0.913776
-0.992716
-0.9867
-0.92918
-0.844051
-0.747283
-0.648964
-0.555134
-0.469135
-0.392497
-0.325583
-0.268079
-0.21919
-0.177947
-0.143215
-0.113839
-0.0887156
-0.0656107
-0.0466096
-0.01789
-0.0289394
7.44301
6.80087
5.88581
4.81687
3.65883
2.51177
1.48339
0.641695
0.00854161
-0.4315
-0.709886
-0.861981
-0.921542
-0.917528
-0.872813
-0.804477
-0.724695
-0.641752
-0.560963
-0.485483
-0.416937
-0.355903
-0.302223
-0.255322
-0.214113
-0.177559
-0.142486
-0.110286
-0.0622838
-0.0529577
7.34445
7.07147
6.48868
5.64004
4.61503
3.51103
2.43269
1.46982
0.67545
0.0644911
-0.37347
-0.662183
-0.830939
-0.90918
-0.923029
-0.893831
-0.838076
-0.767931
-0.691942
-0.615792
-0.543019
-0.475612
-0.414375
-0.359439
-0.310054
-0.265402
-0.222011
-0.18049
-0.117782
-0.0868781
69.6887
72.4483
111.834
184.663
204.27
-151.969
-59.1284
-33.0624
-19.7137
-11.9809
-7.14087
-4.009
-1.98454
-0.703751
0.0782434
0.527821
0.758636
0.902416
0.831113
0.800368
0.742632
0.6717
0.600093
0.530871
0.462364
0.412743
0.309346
0.547081
64.2124
64.7066
92.017
158.906
176.934
47.0256
-122.608
-56.2294
-31.5737
-18.7737
-11.3656
-6.75456
-3.7801
-1.85651
-0.636744
0.109951
0.539997
0.751473
0.889805
0.827714
0.791985
0.733907
0.663415
0.592224
0.523397
0.456135
0.403287
0.318934
0.498017
55.8018
54.4232
66.2945
111.328
94.1392
24.9922
-85.8334
-84.6645
-48.152
-27.7638
-16.5578
-9.98403
-5.90366
-3.2798
-1.58035
-0.497067
0.17038
0.555432
0.727699
0.85844
0.807043
0.768664
0.710839
0.64247
0.573365
0.506397
0.441007
0.387693
0.308264
0.463787
45.7907
44.0401
45.0591
51.1709
57.7937
4.75815
-49.8852
-54.4123
-36.7478
-22.5042
-13.6593
-8.24987
-4.8543
-2.66687
-1.24595
-0.334493
0.231844
0.561946
0.679844
0.80636
0.770623
0.732071
0.67533
0.6105
0.544867
0.480944
0.418266
0.365545
0.28902
0.420803
35.818
34.4111
33.0512
31.7713
17.6157
0.999007
-22.6887
-28.1525
-21.7482
-14.6006
-9.27787
-5.6865
-3.32206
-1.76837
-0.750196
-0.0931356
0.316567
0.547349
0.619839
0.737637
0.716923
0.681363
0.627448
0.567692
0.507002
0.447436
0.388524
0.337375
0.264192
0.368934
26.9736
25.8263
24.0269
20.4081
10.681
-3.18298
-12.8767
-14.5675
-11.5392
-7.98215
-5.17208
-3.14899
-1.74729
-0.799834
-0.173688
0.227093
0.470086
0.5969
0.678265
0.671347
0.652294
0.615968
0.56772
0.514782
0.460472
0.406595
0.352608
0.304114
0.235232
0.311666
19.8369
18.824
16.9384
12.9569
6.05843
-2.25194
-8.11689
-9.43856
-7.85378
-5.72875
-3.87284
-2.42371
-1.36513
-0.625455
-0.124909
0.201832
0.403943
0.513999
0.55958
0.580668
0.566952
0.536964
0.497364
0.452838
0.406302
0.359394
0.311529
0.266895
0.203624
0.252293
14.5189
13.5817
11.7548
8.08048
3.07297
-2.1487
-5.51606
-6.37488
-5.52528
-4.21472
-2.9557
-1.90869
-1.10846
-0.529996
-0.12818
0.140915
0.31203
0.411075
0.460245
0.477633
0.469733
0.448312
0.418264
0.383214
0.345619
0.30684
0.266292
0.226841
0.170778
0.193913
10.8529
9.92095
8.13289
4.91441
1.25111
-2.10189
-4.10352
-4.60846
-4.07725
-3.20643
-2.3243
-1.55905
-0.952525
-0.498715
-0.173826
0.05051
0.198417
0.289178
0.339493
0.360896
0.362166
0.350956
0.331522
0.306966
0.279331
0.249738
0.217694
0.184855
0.137854
0.139251
8.56938
7.57791
5.76584
2.99953
0.282055
-1.92857
-3.17135
-3.47
-3.12017
-2.52636
-1.90099
-1.33889
-0.877604
-0.520224
-0.254876
-0.0648302
0.066386
0.152519
0.205515
0.234396
0.246005
0.245999
0.238065
0.224826
0.207997
0.188543
0.166167
0.141448
0.105611
0.0904369
7.36788
6.27836
4.42709
2.0867
0.0261506
-1.5194
-2.37457
-2.60721
-2.41248
-2.03095
-1.6031
-1.20063
-0.855891
-0.576977
-0.360649
-0.19824
-0.0795362
0.00454113
0.0620807
0.0996336
0.122261
0.134187
0.138409
0.137111
0.131771
0.123284
0.111684
0.096611
0.074265
0.048858
6.94132
5.76288
3.94924
2.01558
0.397066
-0.807772
-1.52936
-1.81878
-1.79857
-1.61469
-1.36378
-1.1028
-0.861578
-0.653219
-0.48123
-0.343426
-0.235308
-0.15211
-0.0891659
-0.042364
-0.00829627
0.015993
0.0327715
0.0438285
0.0504624
0.0535818
0.0537236
0.0497394
0.0433411
0.0150322
6.98377
5.80158
4.1873
2.62708
1.27669
0.192431
-0.563198
-1.00194
-1.18839
-1.21014
-1.13629
-1.01438
-0.874896
-0.736269
-0.608212
-0.494864
-0.397284
-0.31499
-0.246642
-0.190551
-0.145001
-0.108259
-0.0788053
-0.0552425
-0.0364172
-0.0213511
-0.00878564
-0.000498624
0.0113759
-0.0116351
7.16902
6.17541
4.92594
3.67609
2.4714
1.38703
0.510886
-0.126589
-0.541688
-0.780599
-0.891167
-0.913907
-0.880835
-0.815476
-0.734077
-0.647291
-0.561793
-0.481535
-0.408596
-0.343805
-0.287223
-0.238365
-0.196496
-0.160657
-0.129812
-0.102944
-0.0778414
-0.0566228
-0.0250764
-0.0339162
7.17065
6.60656
5.76719
4.7669
3.67186
2.577
1.58371
0.758846
0.127101
-0.32184
-0.61486
-0.783973
-0.860625
-0.872351
-0.841319
-0.784359
-0.713686
-0.637776
-0.562215
-0.490442
-0.424358
-0.364786
-0.311778
-0.264926
-0.223273
-0.18588
-0.149662
-0.116035
-0.0664067
-0.0551795
7.09015
6.84771
6.30708
5.50696
4.53427
3.4818
2.44774
1.51739
0.742725
0.140367
-0.297358
-0.591481
-0.768918
-0.857236
-0.88126
-0.861532
-0.814107
-0.750968
-0.680652
-0.608931
-0.53948
-0.474443
-0.414779
-0.36075
-0.311727
-0.26698
-0.223157
-0.180903
-0.117696
-0.0857834
53.7946
52.6918
61.3472
87.8786
72.7473
15.7888
-54.2622
-59.134
-36.0494
-21.6609
-13.0954
-7.88439
-4.60708
-2.49552
-1.12822
-0.256863
0.278231
0.570662
0.696124
0.837542
0.797837
0.762931
0.703587
0.63593
0.567635
0.501362
0.4355
0.385301
0.286595
0.482544
49.7685
48.6977
53.7705
77.1056
62.0584
14.369
-49.5181
-52.2954
-33.4854
-20.4676
-12.4533
-7.50587
-4.38055
-2.36455
-1.0576
-0.223067
0.290772
0.574509
0.690887
0.826987
0.788517
0.751449
0.692707
0.625885
0.55846
0.492942
0.428519
0.375823
0.294086
0.439157
43.416
42.0975
43.3679
45.6485
49.3063
3.41222
-36.1464
-40.3673
-28.1691
-17.8878
-11.0567
-6.69568
-3.9024
-2.09148
-0.913837
-0.158958
0.308067
0.566862
0.662931
0.793015
0.761027
0.723603
0.666653
0.602579
0.537783
0.474592
0.412434
0.359923
0.283195
0.408083
35.8471
34.4624
33.1443
31.8784
17.7057
1.00319
-22.6895
-28.1767
-21.7672
-14.6076
-9.27787
-5.6835
-3.31866
-1.76567
-0.748352
-0.0919654
0.317287
0.547782
0.620105
0.737776
0.71704
0.681447
0.627508
0.567736
0.507035
0.447459
0.388539
0.337381
0.264191
0.3689
28.345
27.1619
25.2932
21.8093
11.596
-0.34768
-13.4813
-18.0493
-15.3638
-11.0483
-7.3176
-4.587
-2.70921
-1.44646
-0.607405
-0.0597008
0.286009
0.486777
0.542716
0.666254
0.656437
0.625207
0.576039
0.522099
0.466934
0.412279
0.357684
0.308913
0.239859
0.321642
21.6856
20.7103
18.8861
15.0298
7.45673
-2.71317
-9.04779
-10.5038
-8.77129
-6.33596
-4.2211
-2.61239
-1.46105
-0.666908
-0.134528
0.210414
0.422313
0.537228
0.610356
0.600751
0.586583
0.555546
0.513414
0.466859
0.41855
0.370059
0.320901
0.275579
0.211652
0.269495
16.2648
15.4402
13.7674
10.0927
4.46099
-1.94645
-6.16849
-7.27871
-6.29857
-4.74717
-3.28746
-2.1017
-1.21103
-0.575317
-0.13824
0.151718
0.334483
0.437483
0.483775
0.5059
0.497816
0.474212
0.441295
0.403447
0.3632
0.322004
0.27937
0.238612
0.181046
0.21549
12.1884
11.4503
9.91518
6.64307
2.42768
-1.77565
-4.43247
-5.17928
-4.61704
-3.61364
-2.59376
-1.71808
-1.03256
-0.526036
-0.168161
0.0758963
0.234645
0.329842
0.380267
0.401169
0.399627
0.38499
0.361801
0.333483
0.302243
0.269311
0.234236
0.199208
0.149435
0.162491
9.37212
8.64565
7.16183
4.32561
1.16232
-1.65996
-3.36128
-3.84928
-3.49684
-2.81964
-2.09576
-1.44819
-0.922289
-0.520502
-0.227113
-0.0205009
0.119226
0.208221
0.260637
0.28643
0.293813
0.289146
0.276327
0.258244
0.236769
0.212938
0.186406
0.158328
0.117966
0.113027
7.6373
6.85707
5.34083
2.90311
0.501699
-1.4451
-2.57988
-2.91843
-2.70384
-2.24954
-1.7396
-1.26509
-0.865227
-0.548463
-0.308096
-0.132192
-0.00749954
0.0773163
0.132296
0.165166
0.182086
0.187904
0.185937
0.178597
0.167469
0.153457
0.136406
0.116538
0.0873951
0.0690871
6.76275
5.88864
4.31498
2.24051
0.382877
-1.03539
-1.86944
-2.16419
-2.07874
-1.80568
-1.4686
-1.13617
-0.842007
-0.597569
-0.40335
-0.254038
-0.141981
-0.0600379
-0.00162407
0.0387263
0.0653998
0.0820075
0.0911921
0.0949306
0.0945795
0.090977
0.0842795
0.0738823
0.0579497
0.0319709
6.50769
5.54252
3.97593
2.24623
0.763144
-0.374415
-1.10159
-1.44894
-1.51361
-1.41421
-1.23596
-1.03272
-0.834855
-0.657404
-0.506373
-0.381953
-0.28161
-0.20212
-0.140032
-0.0921401
-0.0556675
-0.0281726
-0.00772214
0.00725943
0.0179446
0.0251731
0.0295698
0.0298203
0.0291933
0.00216963
6.62074
5.63579
4.22193
2.81203
1.56168
0.528595
-0.225963
-0.701042
-0.944408
-1.02676
-1.00824
-0.93278
-0.830182
-0.719454
-0.611647
-0.512392
-0.4241
-0.34743
-0.281978
-0.226796
-0.180727
-0.14248
-0.110854
-0.0846696
-0.062913
-0.0446968
-0.0287253
-0.0168873
-0.00025292
-0.0208766
6.82512
5.9881
4.88122
3.74172
2.62209
1.59413
0.740776
0.0971393
-0.343726
-0.617407
-0.764398
-0.821097
-0.81747
-0.776327
-0.714046
-0.641827
-0.567027
-0.494288
-0.426328
-0.364529
-0.309407
-0.260857
-0.218433
-0.181399
-0.148869
-0.119944
-0.0924436
-0.0685563
-0.0335992
-0.039773
6.84521
6.36858
5.61687
4.69781
3.67832
2.64713
1.69813
0.896186
0.268824
-0.188689
-0.497895
-0.686707
-0.783649
-0.814396
-0.800126
-0.757268
-0.698006
-0.631002
-0.562135
-0.495174
-0.432344
-0.374765
-0.322742
-0.276074
-0.233968
-0.195613
-0.158034
-0.122714
-0.0711546
-0.0577042
6.78439
6.57648
6.08503
5.34274
4.43295
3.44279
2.4628
1.57281
0.823238
0.232465
-0.204056
-0.504115
-0.691732
-0.792157
-0.828576
-0.820498
-0.783397
-0.729002
-0.665807
-0.599679
-0.534448
-0.472441
-0.414805
-0.361963
-0.313435
-0.268604
-0.224271
-0.181153
-0.117382
-0.0843198
39.4402
38.5336
38.4555
36.5869
22.4573
0.362992
-25.1372
-26.0264
-18.6236
-11.8211
-7.32934
-4.37837
-2.4234
-1.13894
-0.306818
0.216353
0.528222
0.684762
0.778339
0.777284
0.75042
0.70807
0.651392
0.589071
0.525804
0.46401
0.402051
0.352354
0.259512
0.411329
36.6993
35.7011
34.9191
31.3925
18.9011
0.855307
-22.2516
-23.2531
-16.9785
-10.9726
-6.84118
-4.09011
-2.25692
-1.04791
-0.262883
0.231724
0.526702
0.676159
0.769714
0.763947
0.736404
0.694205
0.638578
0.577479
0.515466
0.454739
0.394392
0.342945
0.2648
0.374135
32.2983
31.163
29.95
26.9437
14.1463
-3.90547
-17.4118
-19.2427
-14.4519
-9.58452
-6.06589
-3.64777
-2.0116
-0.92291
-0.211654
0.238939
0.509065
0.646968
0.734191
0.727504
0.702924
0.662758
0.610013
0.552154
0.493217
0.435218
0.377492
0.326879
0.253794
0.34656
26.9979
25.8583
24.0654
20.3714
10.7471
-3.17524
-12.8643
-14.5767
-11.5417
-7.97964
-5.16835
-3.14515
-1.74388
-0.797098
-0.171619
0.22859
0.47114
0.597632
0.678824
0.671711
0.652541
0.616142
0.567847
0.514876
0.460543
0.406646
0.352643
0.30413
0.235232
0.311604
21.6912
20.716
18.8899
15.0091
7.47211
-2.70886
-9.04183
-10.5056
-8.77176
-6.33507
-4.21979
-2.61095
-1.45969
-0.665758
-0.133619
0.211096
0.422806
0.537578
0.610658
0.60095
0.586713
0.555638
0.513481
0.466911
0.418589
0.370087
0.320921
0.27559
0.211654
0.269465
16.9268
16.1425
14.5206
10.8402
4.91762
-2.13518
-6.41339
-7.52435
-6.48684
-4.8419
-3.31302
-2.09144
-1.18522
-0.544025
-0.106495
0.181321
0.360704
0.459845
0.511029
0.517047
0.507625
0.482945
0.448713
0.409883
0.368786
0.32683
0.283561
0.242446
0.184495
0.223004
13.006
12.372
10.9776
7.69425
3.1507
-1.64296
-4.64255
-5.50875
-4.90992
-3.81438
-2.71271
-1.77949
-1.0565
-0.526689
-0.15539
0.0957052
0.257449
0.352491
0.402098
0.419332
0.41683
0.400678
0.375672
0.345632
0.312756
0.278319
0.241914
0.206027
0.155211
0.174961
10.0375
9.48993
8.24985
5.40566
1.92346
-1.3966
-3.46417
-4.10867
-3.76223
-3.02653
-2.23387
-1.52811
-0.959118
-0.527807
-0.21605
0.00134632
0.146726
0.237648
0.289898
0.313856
0.319143
0.312083
0.296681
0.276036
0.252091
0.225943
0.197265
0.1676
0.12517
0.127942
7.9911
7.45898
6.26651
3.82159
1.14098
-1.20079
-2.63525
-3.11274
-2.91571
-2.4213
-1.85564
-1.32974
-0.889251
-0.543976
-0.285318
-0.0986229
0.0315269
0.117987
0.172271
0.202689
0.216521
0.218948
0.213439
0.202588
0.188067
0.170819
0.150638
0.12819
0.0954979
0.0842584
6.75648
6.17742
4.94518
2.84131
0.7564
-0.938964
-1.97108
-2.35013
-2.26328
-1.94812
-1.55837
-1.17752
-0.845189
-0.57404
-0.36252
-0.203464
-0.0871248
-0.00475309
0.0516379
0.0883701
0.110702
0.122671
0.127157
0.126298
0.121517
0.113641
0.102656
0.0884212
0.0669454
0.0457353
6.17779
5.51141
4.2099
2.40751
0.759708
-0.52896
-1.33775
-1.69225
-1.71382
-1.55182
-1.31114
-1.05503
-0.817386
-0.612433
-0.44428
-0.310977
-0.207633
-0.129199
-0.0707373
-0.0279987
0.00260493
0.024013
0.0384511
0.0476347
0.0527688
0.0546147
0.0534485
0.0484019
0.0397555
0.0135775
6.07298
5.31632
3.99753
2.47952
1.14061
0.0773744
-0.648628
-1.05011
-1.19844
-1.186
-1.08516
-0.945055
-0.795733
-0.653738
-0.527386
-0.419221
-0.328791
-0.25453
-0.194312
-0.145944
-0.107378
-0.0767506
-0.0525204
-0.0333722
-0.0182903
-0.00652632
0.00262786
0.00766463
0.0135359
-0.0117556
6.24166
5.45188
4.24299
2.99168
1.85026
0.876547
0.130357
-0.376401
-0.674854
-0.818982
-0.858918
-0.833915
-0.772316
-0.693294
-0.609014
-0.526526
-0.44962
-0.380154
-0.318739
-0.265242
-0.219137
-0.179634
-0.145898
-0.117011
-0.0921271
-0.0704755
-0.0507308
-0.0349265
-0.0129927
-0.0307826
6.45592
5.77529
4.8162
3.79462
2.76831
1.80489
0.981648
0.337212
-0.126455
-0.434384
-0.619109
-0.712159
-0.74084
-0.726828
-0.686372
-0.631081
-0.568945
-0.505301
-0.443535
-0.385624
-0.332592
-0.284753
-0.241993
-0.203833
-0.169566
-0.138435
-0.108307
-0.0814741
-0.0427824
-0.0459246
6.49083
6.10192
5.44184
4.61017
3.67343
2.71337
1.81567
1.04236
0.423312
-0.0407742
-0.365829
-0.575201
-0.694037
-0.745774
-0.750317
-0.723512
-0.677406
-0.620797
-0.559844
-0.498657
-0.439808
-0.384739
-0.33404
-0.287747
-0.245256
-0.205904
-0.166856
-0.129687
-0.0760776
-0.0601695
6.4488
6.2758
5.83628
5.15672
4.31598
3.39474
2.47531
1.63132
0.911192
0.334835
-0.0990979
-0.40488
-0.603309
-0.717007
-0.767258
-0.772336
-0.747006
-0.702659
-0.647706
-0.588095
-0.527815
-0.469391
-0.414174
-0.362769
-0.314868
-0.269984
-0.225106
-0.181042
-0.116745
-0.0824191
27.977
26.8124
25.0087
21.2763
12.7295
-3.83815
-12.826
-15.6111
-11.7315
-8.00792
-5.2404
-3.20878
-1.78292
-0.814531
-0.171927
0.239855
0.48986
0.622404
0.675687
0.699232
0.675535
0.636252
0.586497
0.531519
0.47509
0.419354
0.362705
0.31486
0.229442
0.337424
26.2061
25.0337
23.0451
18.8812
10.7649
-3.72718
-11.6314
-14.1112
-10.874
-7.49895
-4.91844
-3.01365
-1.66929
-0.752813
-0.143829
0.246845
0.483932
0.609299
0.658858
0.680989
0.658898
0.620541
0.572167
0.518739
0.463837
0.409414
0.354506
0.30564
0.23253
0.306648
23.3514
22.228
20.2961
16.0175
8.23916
-2.59409
-10.1474
-11.8451
-9.45768
-6.68769
-4.43756
-2.7379
-1.52229
-0.685793
-0.126405
0.234596
0.455033
0.572571
0.619418
0.640505
0.621748
0.586655
0.54179
0.491956
0.440439
0.389044
0.337043
0.289607
0.221545
0.282736
19.8449
18.8313
16.9408
12.9057
6.09571
-2.24942
-8.10836
-9.44474
-7.85447
-5.72564
-3.86874
-2.41949
-1.36136
-0.622382
-0.122548
0.203578
0.405206
0.514903
0.56024
0.581148
0.567296
0.537217
0.497555
0.452983
0.406413
0.359478
0.311587
0.266926
0.20363
0.25221
16.2655
15.4396
13.7643
10.069
4.47326
-1.94536
-6.16503
-7.28098
-6.29872
-4.74558
-3.28528
-2.09938
-1.20889
-0.573538
-0.136838
0.152781
0.335271
0.438061
0.484208
0.506227
0.498053
0.47439
0.441432
0.403553
0.363282
0.322066
0.279415
0.238638
0.181054
0.215439
13.0049
12.3702
10.9753
7.68678
3.15311
-1.64312
-4.64199
-5.50955
-4.91002
-3.81385
-2.7119
-1.77857
-1.05562
-0.525941
-0.154788
0.0961716
0.257804
0.352757
0.402302
0.419488
0.416948
0.400769
0.375743
0.345688
0.312801
0.278354
0.24194
0.206042
0.155217
0.174939
10.2944
9.80943
8.65818
5.81686
2.22378
-1.29058
-3.49657
-4.20422
-3.86111
-3.103
-2.28488
-1.55814
-0.97379
-0.531943
-0.213649
0.00754838
0.15492
0.246458
0.298688
0.321783
0.326841
0.319176
0.302997
0.281571
0.256862
0.229998
0.200664
0.170546
0.127538
0.133152
8.23444
7.83812
6.83794
4.41126
1.57681
-1.01002
-2.63758
-3.21159
-3.03412
-2.52139
-1.92637
-1.37257
-0.909664
-0.548291
-0.279213
-0.0862263
0.047359
0.13515
0.189487
0.219017
0.231751
0.232773
0.225717
0.213308
0.197265
0.178564
0.156999
0.133481
0.0993486
0.0924095
6.82572
6.45208
5.49778
3.4199
1.17758
-0.74885
-1.96404
-2.43759
-2.37341
-2.04305
-1.62474
-1.215
-0.858453
-0.569796
-0.34666
-0.180631
-0.0607356
0.0227299
0.0786308
0.113805
0.134106
0.143776
0.14585
0.142586
0.135459
0.125313
0.112077
0.0959268
0.0717457
0.0547877
6.0044
5.59463
4.60335
2.81146
1.02316
-0.44331
-1.38308
-1.79843
-1.82568
-1.6407
-1.3677
-1.0803
-0.817321
-0.594188
-0.413966
-0.273814
-0.167479
-0.0887804
-0.0318251
0.00828927
0.0357304
0.0537427
0.0647406
0.0705494
0.0724113
0.0710622
0.0666189
0.0585652
0.0454707
0.0219388
5.665
5.17859
4.11799
2.57279
1.12764
-0.0348727
-0.814446
-1.22027
-1.33913
-1.28299
-1.13767
-0.959283
-0.780815
-0.618376
-0.479168
-0.364318
-0.271665
-0.198264
-0.140872
-0.0964945
-0.0624607
-0.0365297
-0.0169308
-0.00224947
0.00854175
0.0161087
0.0208373
0.0215742
0.0207846
-0.00503734
5.67377
5.1021
4.01075
2.69663
1.50122
0.515991
-0.200781
-0.647301
-0.871449
-0.941957
-0.917772
-0.84216
-0.743767
-0.640004
-0.541002
-0.451441
-0.372881
-0.305407
-0.248248
-0.200266
-0.160211
-0.126834
-0.0990244
-0.0757619
-0.0562145
-0.0397459
-0.0255771
-0.0154336
-0.0026529
-0.0257145
5.87512
5.26168
4.24605
3.15059
2.12019
1.21126
0.481414
-0.0488453
-0.395786
-0.597963
-0.69521
-0.721317
-0.702374
-0.65718
-0.598607
-0.534902
-0.471131
-0.410318
-0.354089
-0.303155
-0.257658
-0.217342
-0.181768
-0.150312
-0.122315
-0.0971484
-0.0734718
-0.0534854
-0.0260115
-0.0405661
6.08652
5.54892
4.7317
3.82773
2.89736
2.00322
1.21647
0.577797
0.0967965
-0.241838
-0.462663