/*--------------------------------*- C++ -*----------------------------------*\
  =========                 |
  \\      /  F ield         | OpenFOAM: The Open Source CFD Toolbox
   \\    /   O peration     | Website:  https://openfoam.org
    \\  /    A nd           | Version:  10
     \\/     M anipulation  |
\*---------------------------------------------------------------------------*/
FoamFile
{
    format      ascii;
    class       surfaceScalarField;
    location    "800";
    object      phi;
}
// * * * * * * * * * * * * * * * * * * * * * * * * * * * * * * * * * * * * * //

dimensions      [0 3 -1 0 0 0 0];

internalField   nonuniform List<scalar> 
81522
(
525.511
8.66132
8.65382
113.535
32.0202
31.9818
115.4
115.439
117.136
94.0557
9.7029
9.77646
-14.8846
3.26392
3.27187
2.04066
2.10886
2.10942
2.08987
1.1457
-0.669087
-0.767096
0.290481
-6.40973
-1.00459
-1.05527
8.46959
-13.8966
15.4262
-0.756652
-0.77303
-19.2515
20.3033
-0.523027
-0.528772
-22.9208
23.6423
-0.359582
-0.36185
-25.452
25.9563
-0.251609
-0.252629
-27.2366
27.598
-0.180483
-0.180996
-28.5276
28.7935
-0.132828
-0.133114
-29.4857
29.6862
-0.100173
-0.100346
-30.217
122.105
-0.593856
-0.594713
-30.2291
-30.2291
-30.2411
500.182
-3.42694
-3.43126
-123.186
-123.332
-123.332
-123.475
505.778
-2.79632
-2.79964
510.369
-2.29425
-2.29689
514.178
-1.90335
-1.90551
517.371
-1.59554
-1.59736
520.073
-1.35012
-1.35168
522.378
-1.15164
-1.153
524.356
-0.988883
-0.990085
526.053
-0.847512
-0.848577
527.53
-0.738028
-0.738971
-0.580016
-0.580839
530.005
14.3329
7.51226
118.767
50.4795
26.8573
122.375
120.192
123.353
-17.8715
104.803
23.5818
8.25349
-11.2736
-19.7676
13.0645
2.77031
3.87599
3.73611
3.67771
3.91659
-2.7451
3.57305
-4.93533
-0.909194
5.01658
-11.2083
3.84012
-0.950877
-4.6065
12.9255
2.75195
-17.1731
18.3394
-3.24427
-0.673921
1.90388
-21.2629
22.077
-2.25309
-0.464912
1.32677
-24.1411
24.7222
-1.58338
-0.32445
0.942105
-26.209
26.6316
-1.1337
-0.231002
0.68427
-27.7229
28.0361
-0.829207
-0.168245
0.508587
-28.8523
29.0888
-0.619744
-0.125349
0.386408
-29.7109
29.8929
-0.473016
-0.0954526
-30.387
1.15718
122.768
-1.6756
-0.566449
-30.4433
-30.3983
-30.4543
502.455
-6.37042
-3.25328
-123.797
-124.2
-123.933
-124.328
507.563
-5.23568
-2.66935
511.801
-4.33068
-2.20099
515.345
-3.61443
-1.8337
518.338
-3.04531
-1.54272
520.886
-2.58827
-1.30949
523.07
-2.2163
-1.12005
524.954
-1.90852
-0.964074
526.579
-1.64407
-0.828437
527.984
-1.41903
-0.723969
-1.16783
-0.566482
535.717
16.4875
5.97409
126.161
54.3909
19.9356
129.16
126.884
129.665
-26.2503
119.696
26.8791
5.83616
-14.857
-27.2568
25.6802
14.6793
1.75446
-0.818724
0.53524
0.416914
-0.133448
-16.734
8.2712
-8.4615
-0.971686
17.896
5.78014
-20.3848
-0.671354
21.0659
-5.78991
4.03972
-22.8654
23.4011
-4.09831
-0.47716
2.89144
-24.8449
25.2766
-2.97844
-0.344656
2.10528
-26.4395
26.7865
-2.19978
-0.252499
1.55669
-27.7191
27.9969
-1.64676
-0.187662
1.16952
-28.7426
28.9646
-1.2499
-0.141607
0.893084
-29.5611
29.7389
-0.962403
-0.108534
0.693335
-30.2181
30.3616
-0.752327
-0.084526
-30.7663
2.11577
124.135
-2.48925
-0.508668
-30.8509
-30.7759
-30.86
506.524
-8.52003
-2.94159
-125.019
-125.585
-125.137
-125.692
510.812
-7.08504
-2.43772
514.435
-5.92536
-2.02863
517.515
-4.99149
-1.70338
520.151
-4.23841
-1.44264
522.421
-3.62648
-1.2316
524.387
-3.12351
-1.0588
526.097
-2.70339
-0.915526
527.585
-2.34136
-0.790402
528.885
-2.02562
-0.693632
-1.69332
-0.545607
540.795
16.2569
4.56817
530.574
50.3561
14.2556
129.484
97.8765
28.7374
-26.3606
-35.7378
-25.5441
-34.4016
132.954
130.195
133.372
-53.1728
130.865
44.5135
7.27742
-22.9756
-33.8876
35.8776
19.232
1.75361
-3.85659
0.731079
3.63961
-0.517791
-2.49075
2.86805
-2.35402
1.9761
11.3812
-28.2324
27.6569
-9.97909
-0.82662
7.24369
-26.9405
-0.547588
26.8711
-6.62673
5.16315
-26.9418
27.0285
-4.85388
-0.395969
3.876
-27.3969
27.543
-3.72109
-0.30103
2.9676
-28.0223
28.1881
-2.9006
-0.232732
2.29383
-28.6884
28.852
-2.27633
-0.181108
1.78491
-29.3277
29.4787
-1.79427
-0.141684
1.39912
-29.9088
30.043
-1.42176
-0.111562
1.1061
-30.4204
30.537
-1.13414
-0.0885411
0.883458
-30.8626
30.9628
-0.912723
-0.0709356
-31.2616
2.76711
125.901
-2.98071
-0.436171
-31.3568
-31.2692
-31.364
511.692
-9.80844
-2.55811
-126.6
-127.231
-126.697
-127.318
515.024
-8.26962
-2.14694
517.913
-7.00569
-1.8083
520.423
-5.96786
-1.53424
522.612
-5.11607
-1.31099
524.527
-4.41381
-1.12797
526.21
-3.8296
-0.97649
527.693
-3.33644
-0.849782
528.998
-2.9087
-0.73839
530.155
-2.5307
-0.651779
-2.13835
-0.517862
544.462
14.6295
3.36033
541.746
43.2199
9.85166
546.246
75.7377
17.6389
142.355
109.301
6.91817
-37.0428
-43.4961
-35.6148
-41.7391
141.821
142.315
141.795
7.99188
5.66558
5.97642
-49.1491
148.501
38.0644
4.9391
-11.0441
-39.3758
40.5572
0.621823
9.24073
-0.817666
-42.4447
41.713
0.0630321
1.48627
6.08711
-37.5414
140.741
-13.774
-2.15839
6.37353
5.95991
6.2782
-37.5714
-37.2027
-37.1919
6.03804
-133.896
129.323
-16.6386
-2.26736
5.96325
5.77135
5.70668
4.81357
-126.252
124.365
-14.9029
-1.9279
4.58542
4.76949
4.54898
3.86251
-123.15
122.459
-12.7905
-1.59996
3.70396
3.83538
3.67895
3.1552
-122.089
121.986
-10.9052
-1.33258
3.03285
3.13632
3.01582
2.58919
-122.061
122.279
-9.24028
-1.11037
2.49037
2.57579
2.47815
2.12211
-122.602
122.996
-7.77979
-0.922235
2.0411
2.11259
2.03235
1.73594
-123.449
123.927
-6.51363
-0.763439
1.67011
1.72918
1.66385
1.41962
-124.433
124.937
-5.43512
-0.631012
1.36656
1.41482
1.36207
1.1629
-125.448
125.94
-4.53007
-0.52189
1.12028
1.15946
1.11704
0.955944
-126.43
126.892
-3.78092
-0.433054
0.922469
0.953458
0.92008
3.10398
-127.35
127.783
-3.17512
-0.36199
517.3
-10.3303
-2.15857
-128.304
-128.932
-128.381
-129.002
519.708
-8.83971
-1.83735
521.86
-7.58851
-1.56889
523.782
-6.54316
-1.34716
525.497
-5.66848
-1.16308
527.029
-4.9357
-1.00994
528.399
-4.31803
-0.881629
529.627
-3.79088
-0.773256
530.726
-3.33013
-0.677273
531.716
-2.91909
-0.602302
-2.49086
-0.484725
546.669
12.3644
2.40939
547.388
35.6409
6.85982
552.707
58.9774
11.4417
567.673
78.5968
15.7374
147.608
81.0521
15.9614
-30.141
-28.6998
-29.287
-27.8936
145.902
147.4
145.771
-23.5071
149.914
19.3095
1.89114
-6.59977
-150.398
148.877
7.48953
0.631557
557.318
-6.84236
-2.90538
7.2627
9.59218
6.73202
9.07599
-145.757
-144.492
-145.604
-144.38
538.967
-21.4592
-5.35609
11.5337
11.4854
11.0514
11.0956
527.182
-27.1549
-5.92116
11.639
11.1079
11.291
10.8236
520.202
-28.3009
-5.76227
10.6653
10.0885
10.414
9.87542
516.391
-27.3031
-5.329
9.46919
8.92872
9.28092
8.76411
514.69
-25.3309
-4.79952
8.27259
7.77824
8.12724
7.65317
514.39
-22.9269
-4.25088
7.14152
6.70033
7.03094
6.60479
515.017
-20.4161
-3.71978
6.10875
5.72382
6.02513
5.65126
516.223
-17.9709
-3.22792
5.1927
4.86304
5.12968
4.80804
517.756
-15.6946
-2.78634
4.39793
4.12033
4.35044
4.07855
519.445
-13.6424
-2.39992
3.72018
3.49066
3.68428
3.459
521.191
-11.8267
-2.06555
3.15173
2.95322
3.12265
2.91839
522.881
-10.2399
-1.77995
524.476
-8.89706
-1.5384
525.965
-7.74448
-1.33308
527.342
-6.76028
-1.15925
528.605
-5.92016
-1.01204
529.762
-5.20475
-0.887641
530.82
-4.59367
-0.782077
531.788
-4.0666
-0.692069
532.672
-3.60257
-0.611797
533.487
-3.18563
-0.548908
-2.74578
-0.448581
547.821
9.97826
1.69291
550.109
28.5992
4.75412
555.517
45.9482
7.62086
565.208
59.029
9.87636
575.777
60.5646
9.9195
579.413
47.0482
7.27032
-16.3238
-12.8705
-16.0508
-12.7096
573.492
25.5999
3.49412
-7.58572
-3.97112
-7.56055
-4.0556
561.406
5.27292
-0.0301154
549.816
-7.85
-2.01898
540.737
-15.1131
-2.96233
534.303
-18.5577
-3.30955
530.021
-19.6906
-3.33075
527.359
-19.4873
-3.18156
525.887
-18.5063
-2.94848
525.277
-17.1278
-2.67775
525.275
-15.571
-2.39829
525.688
-13.9805
-2.12756
526.37
-12.4481
-1.87594
527.209
-11.0182
-1.64759
528.135
-9.72086
-1.44529
529.08
-8.57276
-1.26907
530.014
-7.56268
-1.11537
530.916
-6.68077
-0.982322
531.777
-5.91319
-0.867461
532.59
-5.24912
-0.768863
533.355
-4.67472
-0.68416
534.075
-4.17465
-0.611326
534.75
-3.73197
-0.546038
535.392
-3.3326
-0.494848
-2.90329
-0.411679
548.299
7.75442
1.17193
551.114
22.501
3.28323
556.019
35.8868
5.15629
563.026
45.5247
6.49693
569.845
47.166
6.5799
572.604
39.0867
5.20259
569.807
25.2987
3.09836
563.084
10.9961
0.999452
555.541
0.146028
-0.452692
548.839
-7.06981
-1.34141
543.483
-11.381
-1.82126
539.47
-13.6447
-2.03222
536.582
-14.5236
-2.07634
534.621
-14.5246
-2.02077
533.377
-13.9762
-1.90706
532.679
-13.1101
-1.76302
532.388
-12.0832
-1.60681
532.392
-11.0016
-1.45019
532.603
-9.92967
-1.29984
532.956
-8.91197
-1.16102
533.392
-7.97392
-1.03534
533.877
-7.12511
-0.922763
534.386
-6.36671
-0.82309
534.902
-5.69372
-0.735348
535.414
-5.10256
-0.658856
535.917
-4.58533
-0.592381
536.409
-4.13176
-0.534827
536.89
-3.72928
-0.483141
537.367
-3.36666
-0.442708
-2.96705
-0.375868
548.369
5.84247
0.804672
551.196
17.3979
2.27605
555.48
28.0387
3.56355
560.89
35.6637
4.45158
565.89
37.5823
4.58336
568.315
32.8115
3.85027
567.303
23.6775
2.63277
563.547
13.4298
1.32302
558.704
4.70454
0.28438
553.885
-1.80127
-0.449664
549.648
-6.22223
-0.921513
546.161
-8.96473
-1.19372
543.423
-10.4576
-1.32704
541.343
-11.0782
-1.36658
539.817
-11.1059
-1.34493
538.743
-10.7508
-1.2854
538.028
-10.164
-1.20425
537.592
-9.45281
-1.1127
537.37
-8.68915
-1.01808
537.307
-7.92381
-0.925633
537.36
-7.18799
-0.838316
537.494
-6.50148
-0.757718
537.685
-5.87318
-0.684571
537.915
-5.30475
-0.618849
538.171
-4.79813
-0.56066
538.446
-4.35044
-0.509554
538.735
-3.95611
-0.465091
539.038
-3.60705
-0.42529
539.362
-3.29609
-0.39435
-2.9424
-0.342544
548.243
4.24563
0.552305
550.82
13.2248
1.59613
554.519
21.8156
2.52393
558.929
28.0855
3.16839
562.994
30.184
3.33309
565.374
27.4811
2.95065
565.458
21.3709
2.22179
563.555
13.957
1.37648
560.541
7.08679
0.631453
557.183
1.50774
0.0491196
553.948
-2.61846
-0.368773
551.063
-5.43412
-0.646003
548.62
-7.20025
-0.814206
546.615
-8.17087
-0.902352
545.012
-8.56862
-0.933935
543.759
-8.57064
-0.927037
542.801
-8.31159
-0.895111
542.088
-7.89137
-0.848
541.573
-7.38126
-0.79264
541.216
-6.83302
-0.73411
540.984
-6.27982
-0.67568
540.848
-5.74598
-0.619612
540.787
-5.24489
-0.567194
540.783
-4.78258
-0.518995
540.826
-4.36479
-0.475616
540.905
-3.99259
-0.437132
541.017
-3.66459
-0.403557
541.161
-3.37706
-0.373823
541.344
-3.12862
-0.350969
-2.83474
-0.312664
548.002
2.96413
0.382387
550.233
9.85162
1.14218
553.433
16.7734
1.8422
557.209
21.9632
2.34603
560.787
24.0799
2.52653
563.245
22.6836
2.33971
564.091
18.6297
1.89469
563.419
13.2967
1.33286
561.72
7.99279
0.792925
559.483
3.40955
0.335337
557.092
-0.206639
-0.0215638
554.79
-2.85056
-0.28112
552.695
-4.64704
-0.457995
550.858
-5.76491
-0.569421
549.29
-6.36876
-0.631495
547.976
-6.59937
-0.657533
546.892
-6.56985
-0.658175
546.01
-6.36766
-0.641661
545.301
-6.05799
-0.61417
544.738
-5.68955
-0.580414
544.297
-5.29459
-0.543603
543.955
-4.89828
-0.506223
543.696
-4.51585
-0.469865
543.505
-4.15576
-0.435447
543.37
-3.826
-0.403867
543.283
-3.53042
-0.375561
543.241
-3.27124
-0.350828
543.242
-3.0487
-0.329402
543.296
-2.86967
-0.313196
-2.64794
-0.286799
547.706
1.96082
0.268625
549.597
7.11837
0.842432
552.399
12.5737
1.39801
555.773
16.7738
1.81559
559.109
18.7409
2.00234
561.702
18.1638
1.92699
563.122
15.5575
1.6524
563.325
11.8242
1.26956
562.579
7.86778
0.871237
561.223
4.25639
0.508775
559.547
1.26284
0.206556
557.766
-1.04028
-0.0295065
556.021
-2.69745
-0.203858
554.39
-3.80885
-0.325809
552.915
-4.48806
-0.405657
551.609
-4.84077
-0.452878
550.472
-4.95659
-0.475656
549.493
-4.90755
-0.480723
548.657
-4.74932
-0.473421
547.95
-4.52451
-0.457999
547.355
-4.26225
-0.437504
546.857
-3.98593
-0.414446
546.443
-3.71061
-0.390554
546.1
-3.44555
-0.366956
545.818
-3.19956
-0.344727
545.59
-2.97817
-0.324551
545.412
-2.78654
-0.30688
545.284
-2.62803
-0.292167
545.216
-2.52076
-0.281212
-2.3825
-0.265201
547.414
1.19255
0.190758
548.989
4.89717
0.647013
551.488
8.96075
1.11318
554.623
12.1615
1.4779
557.861
13.8353
1.66714
560.613
13.7533
1.65835
562.483
12.1979
1.49005
563.356
9.7282
1.22297
563.355
6.94669
0.921828
562.701
4.28148
0.62954
561.618
1.97458
0.37069
560.298
0.123782
0.156073
558.882
-1.26859
-0.0128958
557.467
-2.25326
-0.140027
556.112
-2.90181
-0.231343
554.852
-3.28757
-0.293345
553.704
-3.47635
-0.332205
552.673
-3.52314
-0.353356
551.757
-3.47181
-0.36137
550.949
-3.35672
-0.360052
550.241
-3.20199
-0.352271
549.623
-3.02738
-0.340482
549.085
-2.84611
-0.326478
548.618
-2.66691
-0.311524
548.213
-2.49813
-0.296797
547.864
-2.34586
-0.283168
547.566
-2.21729
-0.271125
547.317
-2.11735
-0.261785
547.128
-2.07767
-0.254769
-2.03239
-0.247825
547.168
0.612932
0.132217
548.495
3.04817
0.522388
550.792
5.72302
0.939898
553.785
7.89422
1.27487
556.999
9.15347
1.46814
559.918
9.33058
1.5035
562.167
8.54366
1.40529
563.579
7.10049
1.21535
564.183
5.36208
0.981002
564.113
3.61298
0.738181
563.541
2.03561
0.510602
562.633
0.721151
0.311483
561.524
-0.306409
0.146059
560.322
-1.06494
0.0143254
559.099
-1.59269
-0.0866092
557.906
-1.934
-0.160938
556.775
-2.13139
-0.213219
555.721
-2.22195
-0.247826
554.754
-2.23616
-0.268685
553.875
-2.19847
-0.279224
553.082
-2.12647
-0.282165
552.369
-2.03475
-0.279902
551.731
-1.93337
-0.27427
551.16
-1.82939
-0.266643
550.65
-1.72948
-0.258261
550.193
-1.63903
-0.250159
549.784
-1.56606
-0.242766
549.42
-1.51459
-0.23782
549.103
-1.52721
-0.233535
-1.57671
-0.234506
547.014
0.206256
0.0767008
548.162
1.44565
0.455216
550.298
2.73351
0.852747
553.173
3.84337
1.176
556.384
4.56128
1.38114
559.479
4.7823
1.45396
562.086
4.52848
1.40785
563.993
3.92056
1.27256
565.152
3.119
1.08418
565.627
2.26399
0.874051
565.541
1.45632
0.665459
565.034
0.755161
0.47349
564.236
0.184787
0.306252
563.259
-0.254435
0.16666
562.188
-0.575458
0.0542357
561.084
-0.797196
-0.0334053
559.992
-0.939792
-0.0995524
558.94
-1.02185
-0.14775
557.944
-1.05924
-0.181424
557.014
-1.06504
-0.203714
556.154
-1.04894
-0.217247
555.363
-1.01906
-0.224383
554.638
-0.981131
-0.227002
553.974
-0.939398
-0.226596
553.367
-0.897768
-0.224442
552.809
-0.859554
-0.221739
552.293
-0.831047
-0.218832
551.811
-0.814177
-0.217898
551.345
-0.846112
-0.215572
-0.960134
-0.223384
546.951
0.0347493
547.971
0.425282
549.879
0.825877
552.559
1.16299
555.717
1.40309
558.971
1.52859
561.958
1.54205
564.416
1.46198
566.219
1.3158
567.352
1.13137
567.876
0.932403
567.894
0.736657
567.523
0.555856
566.872
0.396405
566.036
0.260802
565.09
0.148926
564.091
0.059011
563.081
-0.0115591
562.087
-0.0657006
561.129
-0.106335
560.216
-0.136104
559.354
-0.15743
558.546
-0.172354
557.789
-0.182572
557.08
-0.189528
556.416
-0.194625
555.783
-0.198267
555.172
-0.203
554.53
-0.204081
-0.216206
530.001
7.55793
14.2988
118.729
27.0518
50.395
120.196
122.309
123.301
-17.886
104.736
8.32258
23.5573
-11.2694
-19.7584
2.80533
13.1492
3.90164
3.64924
3.70288
3.81953
-2.83353
3.99609
-0.847144
-5.45733
5.14192
-11.3027
3.99776
-0.923739
-4.77108
12.9998
2.80203
-17.2056
18.3639
-0.663066
-3.29725
1.92232
-21.2735
22.0851
-0.46063
-2.27334
1.3345
-24.1449
24.7252
-0.32261
-1.59216
0.945723
-26.2106
26.6329
-0.230128
-1.13791
0.686144
-27.7237
28.0368
-0.167786
-0.831424
0.509651
-28.8527
29.0892
-0.125086
-0.621019
0.387064
-29.7111
29.8932
-0.0952892
-0.473809
-30.3872
1.15883
122.768
-0.565632
-1.67794
-30.3984
-30.4435
-30.4545
502.457
-3.24914
-6.37815
-123.797
-123.934
-124.201
-124.329
507.565
-2.66613
-5.24174
511.802
-2.19841
-4.33556
515.346
-1.83157
-3.61848
518.339
-1.54093
-3.04875
520.886
-1.30795
-2.59124
523.071
-1.1187
-2.21891
524.955
-0.962886
-1.91083
526.579
-0.827383
-1.64613
527.984
-0.723037
-1.42086
-0.565668
-1.16944
533.361
12.7248
12.6707
122.576
43.6935
43.5053
125.2
125.147
127.149
-15.1618
-15.2852
112.618
20.2824
20.1222
-9.21161
-9.62655
-23.4937
20.3558
11.151
10.8252
-8.12193
4.0699
4.00869
-5.19183
-5.19506
10.4302
-15.421
3.49745
3.42618
-4.06062
-4.12861
16.6866
2.43869
2.40614
-19.798
20.6636
-2.83822
-2.87222
1.69932
1.68539
-22.8803
23.5128
-2.00094
-2.01628
1.20321
1.19691
-25.1533
25.6258
-1.43271
-1.43989
0.868381
0.865266
-26.8588
27.216
-1.0436
-1.04723
0.639646
0.637966
-28.1531
28.4261
-0.774319
-0.77631
0.480854
0.479871
-29.1466
29.3578
-0.585386
-0.586565
0.368658
0.368039
-29.9188
30.0846
-0.450849
-0.451598
-30.5454
1.10427
1.10269
123.385
-1.59886
-1.60109
-30.5984
-30.5984
-30.6498
504.573
-6.05448
-6.06192
-124.366
-124.745
-124.746
-125.103
509.245
-5.00046
-5.00634
513.161
-4.15532
-4.16009
516.463
-3.48173
-3.4857
519.269
-2.94333
-2.94671
521.672
-2.50889
-2.51182
523.744
-2.15387
-2.15645
525.537
-1.85901
-1.8613
527.094
-1.60534
-1.60738
528.424
-1.38768
-1.3895
-1.1476
-1.1492
537.797
14.9563
10.3192
128.106
48.2303
33.5035
130.483
129.559
131.544
-22.8633
-10.8653
123.361
23.7328
14.7401
-6.26938
-13.043
51.75
32.567
27.6685
29.1863
28.3532
29.8635
-118.619
-15.4886
-12.2246
-14.4054
-7.18462
-5.55165
-6.60286
-3.7355
-7.55393
-6.76491
7.28453
7.05779
3.71556
1.10965
1.78634
-2.32293
3.08687
-2.60235
-1.05758
-20.4659
7.34816
3.46871
-7.3642
-4.05839
21.0716
2.42446
5.02095
-22.5821
-2.85469
23.0364
-5.04495
1.7443
3.56924
-24.312
24.7099
-3.64214
-2.06931
1.2766
2.60177
-25.8172
26.1589
-2.69369
-1.52635
0.946911
1.92616
-27.1023
27.3901
-2.02071
-1.14023
0.711326
1.44486
-28.1781
28.4167
-1.53302
-0.861774
0.54153
1.09853
-29.0664
29.2622
-1.17656
-0.659382
0.418043
0.847035
-29.7943
29.9545
-0.914183
-0.511118
0.327364
0.662745
-30.3899
30.5213
-0.7199
-0.401658
-30.901
0.992938
2.02169
124.664
-2.38324
-1.443
-30.9811
-30.9463
-31.0243
508.38
-8.12355
-5.50285
-125.512
-126.048
-125.842
-126.349
512.313
-6.78398
-4.58663
515.668
-5.69643
-3.8432
518.542
-4.81536
-3.24372
521.017
-4.10112
-2.75927
523.159
-3.5183
-2.36484
525.024
-3.03753
-2.04009
526.653
-2.63464
-1.76866
528.078
-2.2869
-1.53409
529.31
-1.98158
-1.33172
-1.66443
-1.10756
542.039
14.9305
8.02951
534.344
45.5814
24.5992
131.675
86.2461
47.2586
-23.3639
-31.1878
-21.4352
-28.069
134.22
132.917
134.821
-45.2794
-13.3876
133.74
38.5792
18.0216
-5.71539
-18.6717
-34.8241
36.4544
16.1036
6.65301
-1.42547
-8.14676
-12.5645
15.4514
5.47021
1.2177
0.840457
4.11187
-9.11398
8.1521
-3.76287
-0.227367
9.56863
-29.8266
2.95141
29.1093
-8.38417
-3.41862
1.97253
6.3036
-28.0572
-2.32442
27.9132
-5.80765
1.45525
4.59523
-27.8039
27.839
-4.35249
-1.73308
1.12053
3.50869
-28.0661
28.1704
-3.3897
-1.34387
0.874951
2.72536
-28.5347
28.6664
-2.67661
-1.05539
0.686892
2.13217
-29.0764
29.2138
-2.12372
-0.832751
0.541474
1.6764
-29.6209
29.7523
-1.6899
-0.659338
0.429119
1.32561
-30.1313
30.2509
-1.3499
-0.524474
0.342413
1.05568
-30.5906
30.6965
-1.08414
-0.419809
0.275486
0.848322
-30.9943
31.0866
-0.877433
-0.338697
-31.369
0.852402
2.65381
126.329
-2.86469
-1.24235
-31.46
-31.4053
-31.4941
513.247
-9.38445
-4.80737
-127.004
-127.607
-127.276
-127.85
516.312
-7.94021
-4.05564
518.993
-6.74956
-3.43571
521.338
-5.76685
-2.92814
523.395
-4.95671
-2.51184
525.203
-4.2864
-2.16875
526.8
-3.72702
-1.88343
528.212
-3.25352
-1.64298
529.463
-2.84226
-1.4339
530.559
-2.47658
-1.25254
-2.10231
-1.04973
545.047
13.5817
6.01392
543.062
39.8614
17.5568
136.399
68.9052
30.6368
137.052
136.606
137.348
-32.3525
138.248
27.6336
9.7877
-42.714
-9.23635
147.614
33.9496
12.385
-141.998
-9.57286
-2.18003
-38.8839
39.9259
2.52595
8.18469
-1.38061
-0.29472
-41.0676
40.6063
0.392621
1.74393
4.88268
3.74242
-148.859
141.179
-10.8588
-4.59072
5.21702
4.46983
4.81744
5.19306
-135.038
4.19165
130.797
-14.2859
-5.51996
4.91049
5.00191
4.74906
4.29362
3.62958
-127.847
125.957
-13.2784
-4.93976
4.11154
4.12017
3.95287
3.51958
3.04316
-124.685
123.915
-11.6352
-4.21742
3.38177
3.40265
3.27517
2.91186
2.55124
-123.453
123.253
-10.0474
-3.57639
2.8041
2.82894
2.72755
2.41325
2.13657
-123.232
123.353
-8.59662
-3.02097
2.32453
2.35319
2.26898
1.99484
1.78228
-123.585
123.891
-7.29707
-2.53861
1.92098
1.95132
1.88074
1.64407
1.48104
-124.262
124.663
-6.15329
-2.12306
1.58325
1.61261
1.55415
1.35326
1.22823
-125.099
125.538
-5.1667
-1.77044
1.30367
1.3305
1.28261
1.11475
1.01876
-125.992
126.432
-4.32987
-1.47553
1.07452
1.09823
1.05921
0.920814
0.847128
-126.875
127.295
-3.63102
-1.23213
0.888975
0.908709
0.877701
2.98814
-127.717
0.707319
128.118
-3.06218
-1.03453
518.568
-9.91564
-4.07295
-128.625
-129.231
-128.842
-129.424
520.785
-8.51062
-3.48465
522.783
-7.32643
-2.98974
524.579
-6.33314
-2.57705
526.191
-5.49901
-2.23257
527.637
-4.79804
-1.9446
528.937
-4.20564
-1.70234
530.105
-3.69889
-1.49633
531.157
-3.25553
-1.316
532.095
-2.85767
-1.15876
-2.44931
-0.98058
546.941
11.5767
4.35995
548.019
33.2585
12.3851
553.633
54.4493
20.2834
566.984
71.4079
26.747
-23.6597
-26.0046
-21.992
-24.1118
146.919
74.1251
27.6563
-27.3669
-25.9515
-25.3824
-24.0099
145.419
146.388
145.148
-21.4081
-3.63069
149.028
17.9496
4.98037
-6.78833
-1.25405
-149.395
148.16
7.43943
1.83841
558.346
-4.1438
-3.56718
5.63232
7.97084
4.56013
6.77255
-145.352
-144.215
-144.92
-143.99
541.45
-18.1804
-8.39544
9.9714
10.1271
8.86716
9.15055
530.18
-24.1327
-9.91995
10.4351
10.0564
9.5882
9.32177
523.242
-25.7065
-9.95754
9.75076
9.27261
9.1079
8.70889
519.274
-25.1384
-9.40272
8.76444
8.29032
8.27049
7.85418
517.329
-23.5382
-8.59957
7.72203
7.28081
7.33853
6.94258
516.752
-21.4663
-7.70987
6.71498
6.31424
6.41871
6.05356
517.098
-19.2352
-6.81647
5.78053
5.42604
5.55317
5.22631
518.037
-17.0234
-5.96798
4.94128
4.63416
4.76761
4.48162
519.329
-14.938
-5.19181
4.20559
3.94443
4.07311
3.82789
520.803
-13.0392
-4.50138
3.57301
3.35577
3.47167
3.26625
522.369
-11.3485
-3.89355
3.03993
2.84838
2.95869
2.76389
523.901
-9.85476
-3.37291
525.365
-8.58499
-2.92837
526.744
-7.49077
-2.54731
528.027
-6.553
-2.2225
529.212
-5.74995
-1.94608
530.302
-5.06429
-1.71147
531.303
-4.47733
-1.51174
532.223
-3.97012
-1.34036
533.068
-3.52331
-1.18944
533.839
-3.11959
-1.05736
-2.70028
-0.905122
547.936
9.39835
3.08318
550.369
26.9153
8.66458
555.723
43.0016
13.7145
564.728
54.8181
17.4618
574.532
56.4808
17.7593
577.901
44.3687
13.247
-15.3065
-12.1593
-14.6159
-11.6325
572.696
24.9407
6.85533
-7.44495
-4.08647
-7.34769
-4.21853
561.709
6.19305
0.620666
550.911
-6.28994
-3.11171
542.254
-13.4363
-5.00163
535.985
-16.9669
-5.77968
531.721
-18.2637
-5.94226
529.001
-18.2385
-5.76108
527.427
-17.442
-5.39848
526.692
-16.2307
-4.94726
526.558
-14.823
-4.46491
526.841
-13.3614
-3.98727
527.4
-11.9381
-3.53625
528.126
-10.6004
-3.12175
528.953
-9.37632
-2.74983
529.809
-8.2877
-2.42283
530.666
-7.32633
-2.13637
531.501
-6.48411
-1.88698
532.304
-5.74897
-1.67068
533.066
-5.1115
-1.48429
533.788
-4.5591
-1.32374
534.468
-4.07749
-1.18488
535.112
-3.65109
-1.06209
535.717
-3.26431
-0.954518
-2.85533
-0.827976
548.329
7.34131
2.14637
551.172
21.3094
6.04534
555.989
33.913
9.42874
562.647
42.876
11.7805
569.121
44.5474
12.039
571.779
37.2423
9.67142
569.307
24.5316
5.9795
563.104
11.1963
2.19901
556.035
0.848528
-0.522012
549.629
-6.14149
-2.23017
544.437
-10.4026
-3.19311
540.497
-12.7033
-3.65332
537.63
-13.657
-3.7903
535.646
-13.7506
-3.72852
534.355
-13.2988
-3.54794
533.597
-12.5258
-3.30219
533.24
-11.5844
-3.02685
533.176
-10.5788
-2.74537
533.321
-9.57308
-2.47177
533.61
-8.6116
-2.21541
533.989
-7.7205
-1.98149
534.422
-6.91106
-1.77103
534.884
-6.18552
-1.5837
535.358
-5.54001
-1.4181
535.833
-4.97184
-1.27324
536.302
-4.474
-1.14708
536.764
-4.03694
-1.03725
537.219
-3.64928
-0.940055
537.666
-3.29817
-0.855194
-2.91797
-0.752978
548.368
5.54798
1.48337
551.164
16.564
4.2257
555.371
26.6735
6.59605
560.585
33.8989
8.21393
565.404
35.8009
8.51104
567.791
31.4554
7.24976
566.938
22.9481
5.06939
563.467
13.3093
2.68119
558.902
4.97182
0.72653
554.294
-1.30983
-0.673779
550.205
-5.63738
-1.59762
546.799
-8.34353
-2.14744
544.103
-9.85725
-2.43088
542.037
-10.5183
-2.53224
540.504
-10.598
-2.51286
539.409
-10.2989
-2.41717
538.664
-9.76734
-2.27653
538.193
-9.10787
-2.11278
537.933
-8.39122
-1.94052
537.834
-7.66748
-1.77
537.85
-6.96763
-1.60745
537.95
-6.3121
-1.45654
538.109
-5.71029
-1.31886
538.309
-5.16449
-1.19466
538.538
-4.67717
-1.08434
538.788
-4.24605
-0.987285
539.054
-3.86603
-0.902424
539.337
-3.53002
-0.827597
539.637
-3.22915
-0.762975
-2.89338
-0.68303
548.214
4.04605
1.02345
550.76
12.6324
2.98109
554.393
20.8493
4.71561
558.685
26.8532
5.92177
562.645
28.9159
6.2579
565.003
26.4501
5.59805
565.174
20.7207
4.27836
563.433
13.7063
2.72036
560.592
7.12592
1.31846
557.39
1.73538
0.205937
554.259
-2.27026
-0.604381
551.457
-5.03756
-1.15069
549.065
-6.78959
-1.48954
547.089
-7.77023
-1.67423
545.498
-8.19204
-1.74878
544.245
-8.22539
-1.74746
543.279
-8.00051
-1.69606
542.551
-7.61447
-1.61356
542.018
-7.13693
-1.51356
541.641
-6.61864
-1.40601
541.387
-6.09227
-1.29739
541.23
-5.58217
-1.19242
541.148
-5.10186
-1.09374
541.125
-4.65768
-1.00263
541.148
-4.25564
-0.92037
541.209
-3.89718
-0.847287
541.304
-3.58118
-0.783255
541.432
-3.30475
-0.72736
541.597
-3.0648
-0.680179
-2.78689
-0.620117
547.978
2.82983
0.71073
550.178
9.42943
2.14575
553.317
16.0839
3.46829
557.013
21.0787
4.42488
560.52
23.1516
4.78326
562.959
21.8874
4.46357
563.853
18.0706
3.65137
563.282
13.0012
2.60871
561.691
7.91983
1.58954
559.556
3.4908
0.715129
557.259
-0.021362
0.0264161
555.026
-2.60508
-0.480182
552.981
-4.37313
-0.829779
551.179
-5.48407
-1.05382
549.633
-6.09479
-1.18232
548.331
-6.34058
-1.24045
547.252
-6.33072
-1.24854
546.368
-6.15004
-1.22242
545.653
-5.86211
-1.1741
545.081
-5.51451
-1.11276
544.629
-5.13892
-1.0447
544.276
-4.76022
-0.974908
544.004
-4.39358
-0.90657
543.8
-4.04757
-0.841577
543.653
-3.73023
-0.78175
543.554
-3.44566
-0.728046
543.499
-3.19618
-0.680982
543.488
-2.98272
-0.640659
543.529
-2.81047
-0.608045
-2.60234
-0.565411
547.686
1.87291
0.4999
549.54
6.82616
1.59132
552.294
12.0798
2.6486
555.606
16.1346
3.44748
558.889
18.0567
3.81403
561.461
17.5511
3.69166
562.903
15.0927
3.18843
563.164
11.5355
2.47401
562.498
7.73731
1.71967
561.22
4.25064
1.0271
559.614
1.34619
0.444739
557.892
-0.899196
-0.013884
556.194
-2.52321
-0.355482
554.6
-3.61926
-0.596735
553.152
-4.29535
-0.75672
551.865
-4.65296
-0.853316
550.739
-4.77857
-0.902115
549.766
-4.74199
-0.916024
548.934
-4.59739
-0.905375
548.226
-4.38638
-0.87842
547.628
-4.13745
-0.841106
547.125
-3.87362
-0.798393
546.705
-3.60978
-0.753695
546.355
-3.35517
-0.709277
546.065
-3.11857
-0.667277
545.83
-2.90562
-0.629078
545.644
-2.72147
-0.595611
545.507
-2.57
-0.567782
545.43
-2.46781
-0.546933
-2.34038
-0.519387
547.4
1.13723
0.354656
548.948
4.69733
1.22837
551.405
8.61455
2.12149
554.487
11.7082
2.82172
557.678
13.3413
3.19129
560.405
13.2947
3.18825
562.28
11.8287
2.87947
563.186
9.47358
2.37879
563.235
6.80262
1.80692
562.637
4.23045
1.24756
561.611
1.99456
0.748853
560.342
0.193505
0.332775
558.969
-1.16702
0.0032262
557.59
-2.13361
-0.246243
556.264
-2.77406
-0.426694
555.026
-3.15863
-0.55035
553.895
-3.35075
-0.628937
552.877
-3.40369
-0.672862
551.969
-3.36005
-0.690947
551.166
-3.25334
-0.690566
550.461
-3.10712
-0.677297
549.844
-2.94076
-0.655957
549.305
-2.76729
-0.630063
548.836
-2.59535
-0.602118
548.428
-2.43321
-0.57445
548.075
-2.28699
-0.548744
547.772
-2.16383
-0.526159
547.517
-2.06892
-0.508191
547.324
-2.03282
-0.496467
-1.99518
-0.481916
547.159
0.58186
0.244434
548.463
2.91939
0.996651
550.722
5.49517
1.80049
553.667
7.59296
2.4451
556.834
8.81933
2.82219
559.723
9.01004
2.90001
561.963
8.2724
2.72069
563.391
6.89835
2.36322
564.026
5.23145
1.91663
563.998
3.54627
1.45072
563.471
2.02055
1.0117
562.606
0.744533
0.625769
561.537
-0.25655
0.303815
560.37
-0.998336
0.0464317
559.178
-1.51674
-0.151566
558.01
-1.85405
-0.298031
556.899
-2.05115
-0.401636
555.862
-2.14383
-0.47077
554.908
-2.16166
-0.513012
554.039
-2.1284
-0.535005
553.253
-2.0612
-0.542035
552.545
-1.97434
-0.538777
551.91
-1.8777
-0.528818
551.341
-1.77823
-0.514853
550.832
-1.68253
-0.499331
550.375
-1.59595
-0.484182
549.965
-1.52652
-0.470661
549.597
-1.47807
-0.460616
549.28
-1.49325
-0.455652
-1.54649
-0.452285
547.007
0.193194
0.14315
548.135
1.3789
0.868246
550.235
2.61393
1.63397
553.064
3.68236
2.25772
556.228
4.37812
2.65861
559.284
4.59948
2.80805
561.871
4.36479
2.72837
563.778
3.78858
2.47533
564.954
3.02307
2.11709
565.457
2.20285
1.7142
565.406
1.42538
1.31193
564.935
0.74832
0.939932
564.175
0.195919
0.614524
563.232
-0.230739
0.341918
562.191
-0.543619
0.121614
561.115
-0.76061
-0.0507157
560.047
-0.900943
-0.181264
559.014
-0.982473
-0.2768
558.036
-1.02051
-0.34392
557.12
-1.02769
-0.388712
556.271
-1.0134
-0.416285
555.489
-0.985555
-0.431246
554.772
-0.949727
-0.437279
554.114
-0.910083
-0.437297
553.512
-0.870473
-0.433872
552.957
-0.834086
-0.429159
552.444
-0.807442
-0.424499
551.961
-0.791379
-0.421894
551.5
-0.825834
-0.421948
-0.937693
-0.428435
546.944
0.0676059
547.947
0.80065
549.822
1.56507
552.456
2.21132
555.563
2.67398
558.77
2.92103
561.722
2.95536
564.162
2.81052
565.963
2.53759
567.108
2.18951
567.654
1.81151
567.701
1.43772
567.362
1.09094
566.744
0.783925
565.939
0.521869
565.023
0.304895
564.051
0.129885
563.065
-0.00798601
562.093
-0.114192
561.153
-0.194267
560.257
-0.253257
559.41
-0.295807
558.613
-0.325863
557.867
-0.346689
557.169
-0.361153
556.512
-0.371768
555.886
-0.379994
555.28
-0.388706
554.645
-0.394886
-0.411398
535.662
6.00885
16.4585
126.093
20.0105
54.3685
126.842
129.112
129.631
-26.2131
119.567
5.86137
26.8779
-14.6614
-27.1644
25.5467
1.7227
14.5564
0.619646
1.31092
0.226115
-2.15665
-17.247
8.65784
-0.949949
-8.72703
18.2662
5.8826
-20.5393
-0.661155
21.184
-5.86608
4.08005
-22.9214
23.4447
-0.47238
-4.13099
2.90996
-24.867
25.2943
-0.342368
-2.99491
2.11453
-26.4489
26.7942
-0.251338
-2.20849
1.56161
-27.7236
28.0006
-0.187038
-1.65159
1.17232
-28.7449
28.9665
-0.14125
-1.25273
0.894777
-29.5624
29.7401
-0.108314
-0.964158
0.694428
-30.2189
30.3624
-0.084383
-0.75348
-30.7669
2.11864
124.137
-0.507929
-2.49247
-30.7764
-30.8515
-30.8606
506.53
-2.93774
-8.52967
-125.021
-125.139
-125.587
-125.694
510.816
-2.43466
-7.09281
514.438
-2.02615
-5.93178
517.518
-1.70133
-4.99691
520.153