/*--------------------------------*- C++ -*----------------------------------*\
  =========                 |
  \\      /  F ield         | OpenFOAM: The Open Source CFD Toolbox
   \\    /   O peration     | Website:  https://openfoam.org
    \\  /    A nd           | Version:  10
     \\/     M anipulation  |
\*---------------------------------------------------------------------------*/
FoamFile
{
    format      ascii;
    class       volVectorField;
    location    "800";
    object      U;
}
// * * * * * * * * * * * * * * * * * * * * * * * * * * * * * * * * * * * * * //

dimensions      [0 1 -1 0 0 0 0];

internalField   nonuniform List<vector> 
27507
(
(13.8851 0.0864131 0.0861197)
(13.063 0.333816 0.334672)
(10.9972 0.373691 0.371341)
(4.968 0.522087 0.493824)
(-0.233554 -0.0977011 -0.111891)
(3.06113 -0.1538 -0.160509)
(6.01969 -0.117127 -0.11956)
(8.11106 -0.0810499 -0.0819373)
(9.54293 -0.0556513 -0.0560045)
(10.5329 -0.0388872 -0.0390454)
(11.2331 -0.0278607 -0.0279401)
(11.7414 -0.020484 -0.0205281)
(12.1198 -0.0154395 -0.0154663)
(12.4458 -0.023035 -0.0230685)
(12.7242 -0.0340998 -0.0341434)
(12.884 -0.0276778 -0.027711)
(13.0123 -0.0226238 -0.0226501)
(13.1185 -0.0187098 -0.0187312)
(13.2073 -0.015648 -0.015666)
(13.2821 -0.0132136 -0.0132289)
(13.3457 -0.0112493 -0.0112626)
(13.4 -0.00964653 -0.00965826)
(13.4474 -0.00825311 -0.00826348)
(13.4851 -0.00719156 -0.00720073)
(13.53 -0.00557611 -0.00558409)
(13.8905 0.229204 0.0752859)
(13.2543 0.846731 0.279889)
(11.6562 1.60507 0.315938)
(7.19512 3.72485 0.425174)
(1.58743 -1.2736 -0.138316)
(4.96071 -1.29965 -0.146011)
(7.28411 -0.928608 -0.104388)
(8.8832 -0.643597 -0.0720196)
(10.0121 -0.450045 -0.0501894)
(10.8251 -0.320672 -0.0356883)
(11.4218 -0.233579 -0.0259643)
(11.868 -0.173993 -0.019327)
(12.208 -0.132449 -0.0147095)
(12.5186 -0.109939 -0.0219527)
(12.7897 -0.0974435 -0.032331)
(12.9349 -0.0796015 -0.0263916)
(13.0528 -0.0654329 -0.0216863)
(13.1513 -0.0543315 -0.0180129)
(13.2343 -0.0455907 -0.0151215)
(13.3046 -0.038609 -0.0128101)
(13.3647 -0.0329525 -0.0109367)
(13.4164 -0.0283077 -0.00940122)
(13.4615 -0.0243027 -0.00806655)
(13.4979 -0.0210265 -0.00704568)
(13.541 -0.0169281 -0.00545985)
(13.9144 0.304842 0.0602467)
(13.5012 1.03378 0.204453)
(12.6283 2.05531 0.222958)
(10.7387 4.52286 0.269665)
(0.179819 0.947806 -0.0975748)
(7.08117 -2.55352 -0.151831)
(8.49042 -1.77932 -0.103768)
(9.47827 -1.25605 -0.0738932)
(10.2673 -0.905863 -0.0533251)
(10.9026 -0.664033 -0.0390173)
(11.4122 -0.493925 -0.0289695)
(11.8197 -0.372884 -0.0218414)
(12.1456 -0.285844 -0.0167279)
(12.4075 -0.22264 -0.0130223)
(12.6684 -0.178376 -0.0196997)
(12.9063 -0.147149 -0.0291696)
(13.0269 -0.121463 -0.0240634)
(13.127 -0.100876 -0.0199639)
(13.212 -0.0844605 -0.0167176)
(13.2847 -0.071362 -0.0141306)
(13.347 -0.0607912 -0.0120417)
(13.4009 -0.0521519 -0.0103343)
(13.4476 -0.044989 -0.00892491)
(13.4888 -0.0388287 -0.00769447)
(13.5223 -0.0335107 -0.00674931)
(13.5623 -0.0278142 -0.00525706)
(13.9535 0.31911 0.0460413)
(13.7103 1.02486 0.144914)
(13.4551 2.08109 0.300388)
(13.1489 3.70572 0.280811)
(13.9637 6.36371 0.261068)
(4.9433 2.93694 0.114058)
(8.83182 -2.62696 -0.250394)
(11.2899 -3.18542 -0.132711)
(10.9903 -2.10338 -0.0846961)
(11.0481 -1.53646 -0.0612326)
(11.2505 -1.16837 -0.0465527)
(11.5117 -0.903138 -0.0359577)
(11.7845 -0.703454 -0.0279563)
(12.044 -0.550975 -0.0218555)
(12.2786 -0.434226 -0.0171985)
(12.4845 -0.344799 -0.0136419)
(12.6622 -0.276438 -0.010926)
(12.8607 -0.222246 -0.0168778)
(13.053 -0.180009 -0.0252997)
(13.1452 -0.150597 -0.0211531)
(13.2242 -0.126655 -0.0177693)
(13.2929 -0.107192 -0.0150409)
(13.3527 -0.0913955 -0.01283)
(13.405 -0.0784685 -0.011021)
(13.4508 -0.0677799 -0.00952595)
(13.4911 -0.0588254 -0.00828062)
(13.527 -0.0510831 -0.00718595)
(13.5566 -0.0442763 -0.00634056)
(13.5925 -0.0372191 -0.00498951)
(13.9815 0.298408 0.0337795)
(13.882 0.902964 0.0996702)
(13.841 1.64787 0.180785)
(14.1098 2.46659 0.270888)
(14.7485 3.26874 0.195769)
(16.3385 3.04562 0.0926647)
(17.0776 0.402381 0.00651301)
(14.7785 -1.36761 -0.0846774)
(13.4099 -1.48778 -0.0892399)
(12.8085 -1.27475 -0.0755907)
(12.565 -1.06613 -0.0625741)
(12.4908 -0.892223 -0.0519955)
(12.5067 -0.745124 -0.0432333)
(12.5727 -0.619545 -0.0358433)
(12.6647 -0.513105 -0.0296254)
(12.7674 -0.424084 -0.0244524)
(12.8712 -0.350563 -0.0202001)
(12.9703 -0.290399 -0.0167457)
(13.0635 -0.242203 -0.0139682)
(13.2105 -0.196686 -0.0212892)
(13.2755 -0.166988 -0.018069)
(13.3336 -0.142365 -0.0153934)
(13.3856 -0.121954 -0.0131913)
(13.432 -0.10507 -0.011372)
(13.4734 -0.0910291 -0.00986052)
(13.5105 -0.0792658 -0.0085956)
(13.5435 -0.0693007 -0.00753151)
(13.5736 -0.060618 -0.00658887)
(13.5986 -0.0528996 -0.00585752)
(13.6297 -0.0449142 -0.0046712)
(13.9972 0.259372 0.0241602)
(13.9855 0.753487 0.0689705)
(14.0308 1.27495 0.115829)
(14.2671 1.74094 0.158625)
(14.7671 1.808 0.163397)
(15.253 1.60294 0.0756801)
(15.3441 0.553975 0.0240545)
(14.5446 -0.289679 -0.032457)
(13.9871 -0.572501 -0.0569712)
(13.6088 -0.659308 -0.0617662)
(13.3815 -0.651999 -0.0592945)
(13.2521 -0.606814 -0.0543203)
(13.1868 -0.547947 -0.0485775)
(13.1648 -0.485557 -0.0427696)
(13.1717 -0.424633 -0.0372371)
(13.197 -0.367931 -0.0321709)
(13.2335 -0.316865 -0.0276622)
(13.2755 -0.271967 -0.0237451)
(13.3202 -0.232575 -0.0203749)
(13.3646 -0.19989 -0.0175087)
(13.4068 -0.172426 -0.0151013)
(13.4464 -0.149048 -0.0130611)
(13.4831 -0.129285 -0.0113387)
(13.5168 -0.112611 -0.00988627)
(13.5478 -0.0985112 -0.0086602)
(13.5761 -0.0865352 -0.00762064)
(13.6019 -0.0762772 -0.00673769)
(13.6258 -0.0672676 -0.00594979)
(13.6462 -0.0591896 -0.00533663)
(13.6722 -0.0507553 -0.00432442)
(14.0057 0.213742 0.0169301)
(14.0388 0.611772 0.0475917)
(14.1217 0.990284 0.0766037)
(14.3161 1.28579 0.0997354)
(14.6134 1.31399 0.100154)
(14.8424 0.991467 0.0728536)
(14.8124 0.487609 0.0339856)
(14.5389 0.0261912 -0.00184342)
(14.2095 -0.247269 -0.0216221)
(13.9398 -0.382672 -0.0306701)
(13.7446 -0.435689 -0.0337695)
(13.6113 -0.44302 -0.0336779)
(13.5255 -0.425784 -0.0319658)
(13.475 -0.395864 -0.0294723)
(13.4502 -0.360119 -0.0266542)
(13.4438 -0.322705 -0.0237871)
(13.4502 -0.28617 -0.0210361)
(13.465 -0.252066 -0.018498)
(13.485 -0.220827 -0.0162086)
(13.5081 -0.19329 -0.0141875)
(13.5323 -0.169272 -0.0124375)
(13.5565 -0.148366 -0.0109146)
(13.5801 -0.130294 -0.00959845)
(13.6028 -0.114736 -0.00846692)
(13.6242 -0.101362 -0.00749636)
(13.6444 -0.0898497 -0.00666299)
(13.6633 -0.0798888 -0.0059491)
(13.6814 -0.0710801 -0.00530855)
(13.6971 -0.0631337 -0.00480966)
(13.7181 -0.0547029 -0.00397067)
(14.0094 0.168991 0.0116893)
(14.0611 0.485457 0.0327448)
(14.1536 0.773403 0.0515408)
(14.3109 0.982729 0.0651379)
(14.5107 1.0115 0.065803)
(14.6557 0.814863 0.0516691)
(14.6554 0.495601 0.0302575)
(14.5148 0.174836 0.00911878)
(14.3156 -0.0544762 -0.00528488)
(14.1275 -0.197256 -0.0139522)
(13.9726 -0.276488 -0.018544)
(13.8536 -0.312893 -0.0204731)
(13.7667 -0.322096 -0.0207788)
(13.7062 -0.314655 -0.020123)
(13.6663 -0.297482 -0.0189179)
(13.6425 -0.275133 -0.0174337)
(13.6306 -0.250607 -0.015846)
(13.6276 -0.225896 -0.0142682)
(13.6308 -0.202118 -0.0127635)
(13.6384 -0.179955 -0.0113791)
(13.6488 -0.159938 -0.0101339)
(13.6608 -0.142052 -0.00902029)
(13.6737 -0.126229 -0.00803555)
(13.6869 -0.112341 -0.00717226)
(13.7001 -0.100214 -0.00642004)
(13.7131 -0.0896465 -0.00576645)
(13.7258 -0.0804259 -0.00520272)
(13.7384 -0.0722361 -0.00469575)
(13.7498 -0.0648321 -0.00430178)
(13.7658 -0.0568027 -0.00362764)
(14.01 0.129091 0.00800862)
(14.0656 0.378294 0.0226229)
(14.1545 0.604833 0.0354373)
(14.2838 0.76629 0.0443217)
(14.4309 0.800936 0.0455102)
(14.5383 0.684346 0.0380205)
(14.5569 0.473768 0.0257209)
(14.4868 0.245075 0.0126134)
(14.3669 0.0588516 0.0023379)
(14.2382 -0.0742535 -0.00485006)
(14.1205 -0.160642 -0.00942209)
(14.0213 -0.210983 -0.0120206)
(13.9421 -0.235769 -0.0132549)
(13.8811 -0.243182 -0.013578)
(13.8356 -0.239267 -0.0133118)
(13.803 -0.228335 -0.0126844)
(13.7806 -0.213408 -0.011854)
(13.7664 -0.196589 -0.0109301)
(13.7583 -0.179237 -0.00998294)
(13.755 -0.162251 -0.00906156)
(13.7551 -0.146277 -0.00819716)
(13.7577 -0.131565 -0.00740053)
(13.762 -0.118235 -0.0066784)
(13.7675 -0.106307 -0.00603235)
(13.7738 -0.0957321 -0.00546052)
(13.7806 -0.0864163 -0.00495824)
(13.7878 -0.0782403 -0.00452295)
(13.7955 -0.0709751 -0.00413257)
(13.8028 -0.0644401 -0.00383106)
(13.8143 -0.0571497 -0.00330872)
(14.0087 0.0953875 0.00548656)
(14.0605 0.289942 0.0158111)
(14.1407 0.472082 0.0249907)
(14.2491 0.603549 0.0313759)
(14.3665 0.642923 0.0329242)
(14.4567 0.575426 0.0290157)
(14.4894 0.434732 0.0216926)
(14.4615 0.269453 0.0132646)
(14.3925 0.121268 0.00591918)
(14.3071 0.00489375 0.000210941)
(14.2206 -0.0784541 -0.00385775)
(14.1414 -0.133291 -0.00653142)
(14.0731 -0.165934 -0.00813545)
(14.0163 -0.182301 -0.00895843)
(13.9704 -0.187251 -0.00923296)
(13.9342 -0.184528 -0.00913635)
(13.9062 -0.176907 -0.00880015)
(13.8852 -0.166413 -0.00832053)
(13.8697 -0.154451 -0.00776463)
(13.8588 -0.142001 -0.00718031)
(13.8515 -0.129754 -0.00660172)
(13.8469 -0.118102 -0.00604756)
(13.8445 -0.107277 -0.00553013)
(13.8438 -0.0974025 -0.00505658)
(13.8443 -0.0885216 -0.00463042)
(13.8459 -0.0806253 -0.00425223)
(13.8484 -0.0736784 -0.00392362)
(13.8517 -0.0675401 -0.00363193)
(13.8554 -0.0621203 -0.00340905)
(13.8626 -0.0558542 -0.00302302)
(14.0063 0.067913 0.00379098)
(14.0507 0.218146 0.0112814)
(14.1208 0.365656 0.0181804)
(14.214 0.47503 0.0231342)
(14.3144 0.516341 0.0248627)
(14.397 0.479693 0.0229399)
(14.4408 0.38559 0.018481)
(14.4407 0.266042 0.0129012)
(14.4066 0.150369 0.00758561)
(14.3532 0.0528274 0.00309982)
(14.2922 -0.0221567 -0.000377459)
(14.231 -0.0755343 -0.00289248)
(14.1742 -0.110658 -0.0045955)
(14.1237 -0.131525 -0.00565902)
(14.0802 -0.141828 -0.00624257)
(14.0434 -0.144613 -0.00647696)
(14.0129 -0.142272 -0.00646638)
(13.9879 -0.136627 -0.00629149)
(13.9678 -0.129006 -0.0060123)
(13.9516 -0.120368 -0.00567347)
(13.9389 -0.111401 -0.00530824)
(13.929 -0.102552 -0.0049384)
(13.9215 -0.0941082 -0.00457922)
(13.9158 -0.0862522 -0.00424106)
(13.9117 -0.0790887 -0.00393077)
(13.9089 -0.072673 -0.00365252)
(13.9072 -0.0670422 -0.00341045)
(13.9067 -0.0621396 -0.00320019)
(13.9071 -0.0580061 -0.00304183)
(13.9103 -0.0530126 -0.00277599)
(14.0033 0.0461563 0.00265971)
(14.039 0.160173 0.00830483)
(14.0998 0.278336 0.0137576)
(14.1821 0.368466 0.017845)
(14.2728 0.408434 0.0196446)
(14.3529 0.391272 0.0188507)
(14.4059 0.329532 0.0161037)
(14.4257 0.244373 0.012311)
(14.4166 0.156424 0.00839254)
(14.3876 0.0778617 0.00484448)
(14.3471 0.0140463 0.00189816)
(14.3017 -0.0340533 -0.000393942)
(14.2559 -0.0678743 -0.00207976)
(14.2123 -0.0899046 -0.00325319)
(14.1724 -0.102773 -0.00401656)
(14.1368 -0.10883 -0.00446311)
(14.1056 -0.110025 -0.00467305)
(14.0786 -0.107903 -0.00471233)
(14.0554 -0.103636 -0.00463292)
(14.0358 -0.0980952 -0.00447529)
(14.0192 -0.0919187 -0.00427072)
(14.0053 -0.0855472 -0.0040418)
(13.9937 -0.0792822 -0.00380522)
(13.9841 -0.0733296 -0.00357319)
(13.9762 -0.0678281 -0.0033546)
(13.9697 -0.0628753 -0.00315607)
(13.9645 -0.0585682 -0.00298305)
(13.9606 -0.0549247 -0.00283864)
(13.958 -0.0521706 -0.00273108)
(13.9573 -0.0486765 -0.00256998)
(13.9999 0.0293988 0.00188841)
(14.0272 0.113315 0.00636838)
(14.0805 0.204572 0.0109307)
(14.1555 0.275849 0.0144903)
(14.241 0.31142 0.0163184)
(14.3213 0.30628 0.0161944)
(14.3822 0.267791 0.0145094)
(14.4171 0.209485 0.0118675)
(14.427 0.145499 0.00890855)
(14.417 0.0854042 0.00604927)
(14.3934 0.0342967 0.00352574)
(14.3615 -0.00600786 0.00144009)
(14.3258 -0.0357922 -0.000196975)
(14.289 -0.0564148 -0.00142481)
(14.2533 -0.0696119 -0.0023036)
(14.2196 -0.0770851 -0.00289745)
(14.1888 -0.0803245 -0.00326689)
(14.1609 -0.0805576 -0.00346514)
(14.136 -0.0787479 -0.00353678)
(14.114 -0.0756296 -0.00351814)
(14.0946 -0.0717516 -0.00343844)
(14.0777 -0.0675087 -0.00332016)
(14.063 -0.0631806 -0.00318066)
(14.0502 -0.0589687 -0.00303325)
(14.0391 -0.0550208 -0.00288812)
(14.0294 -0.0514549 -0.00275374)
(14.0212 -0.0484131 -0.00263568)
(14.0141 -0.0459675 -0.00254412)
(14.0087 -0.0445858 -0.00247437)
(14.004 -0.0428021 -0.00240438)
(13.997 0.0167505 0.00131085)
(14.0174 0.0750775 0.00514108)
(14.0651 0.140174 0.00921858)
(14.1354 0.192037 0.0124809)
(14.2182 0.220675 0.0143493)
(14.2998 0.222412 0.0146644)
(14.3679 0.200906 0.0136742)
(14.4151 0.164155 0.0117948)
(14.4403 0.121202 0.00949306)
(14.446 0.0788792 0.00711861)
(14.4367 0.0413665 0.00490024)
(14.4167 0.0105945 0.0029647)
(14.3901 -0.0130847 0.00136065)
(14.36 -0.0302623 8.6281e-05)
(14.3285 -0.0419585 -0.000887796)
(14.2974 -0.0492871 -0.00160316)
(14.2675 -0.0532849 -0.0021046)
(14.2394 -0.054841 -0.00243496)
(14.2135 -0.0546754 -0.00263255)
(14.1899 -0.05335 -0.0027302)
(14.1685 -0.0512933 -0.00275538)
(14.1493 -0.0488223 -0.00273031)
(14.132 -0.0461676 -0.00267275)
(14.1166 -0.0435019 -0.00259689)
(14.1028 -0.040959 -0.00251374)
(14.0904 -0.0386557 -0.00243342)
(14.0795 -0.0367563 -0.0023606)
(14.0694 -0.0353557 -0.00231246)
(14.0613 -0.0351742 -0.00226832)
(14.0519 -0.0352268 -0.00227732)
(13.996 0.00671711 0.000762741)
(14.0112 0.0432443 0.00448851)
(14.0544 0.0821815 0.00837386)
(14.1206 0.114182 0.0115206)
(14.2013 0.133849 0.0135046)
(14.2849 0.138485 0.0141862)
(14.36 0.129103 0.0137047)
(14.4187 0.109687 0.0123578)
(14.4579 0.0851925 0.0105022)
(14.4781 0.059785 0.00844364)
(14.4822 0.0363222 0.00640752)
(14.4737 0.0163699 0.00453932)
(14.4562 0.000471046 0.00291592)
(14.4329 -0.0115021 0.00156405)
(14.4061 -0.0200309 0.00047773)
(14.378 -0.0257288 -0.000367223)
(14.3496 -0.0292117 -0.00100338)
(14.322 -0.0310311 -0.0014656)
(14.2957 -0.0316464 -0.00178741)
(14.271 -0.0314237 -0.00199905)
(14.2481 -0.0306451 -0.00212679)
(14.227 -0.0295251 -0.00219281)
(14.2076 -0.0282188 -0.00221526)
(14.1898 -0.0268504 -0.00220935)
(14.1736 -0.0255119 -0.00218656)
(14.1587 -0.0242942 -0.00215867)
(14.1451 -0.0233535 -0.00212902)
(14.132 -0.0227175 -0.00212031)
(14.1214 -0.0233135 -0.00209409)
(14.1057 -0.0251248 -0.00217095)
(13.9982 0.000719356 0.000333922)
(14.0095 0.0169017 0.00418352)
(14.0463 0.0346567 0.00813858)
(14.1063 0.0508768 0.0114431)
(14.1831 0.0628922 0.0137841)
(14.2677 0.0688509 0.0149946)
(14.3499 0.0682867 0.015101)
(14.4213 0.0622092 0.0142903)
(14.4765 0.0525056 0.0128367)
(14.5141 0.0411134 0.0110152)
(14.5348 0.0296077 0.00905744)
(14.541 0.0190583 0.00713694)
(14.5358 0.0100435 0.00536712)
(14.522 0.00275979 0.00380963)
(14.5023 -0.00284132 0.00248792)
(14.4791 -0.00694802 0.00139968)
(14.4538 -0.00980867 0.000526945)
(14.4278 -0.0116785 -0.000156423)
(14.402 -0.0127897 -0.000679378)
(14.3769 -0.0133395 -0.00107057)
(14.3529 -0.0134875 -0.00135636)
(14.3302 -0.0133597 -0.00156011)
(14.3088 -0.013052 -0.00170166)
(14.2887 -0.0126394 -0.00179819)
(14.27 -0.0121827 -0.00186301)
(14.2524 -0.011727 -0.00191012)
(14.2361 -0.0113725 -0.00194281)
(14.2194 -0.0111159 -0.00198885)
(14.2068 -0.0113485 -0.00199464)
(14.1806 -0.0131296 -0.00211132)
(13.8905 0.0751591 0.229197)
(13.2544 0.278842 0.847811)
(11.6551 0.312674 1.60821)
(7.2309 0.404078 3.75323)
(1.62708 -0.12139 -1.40528)
(4.99293 -0.141532 -1.34549)
(7.29539 -0.102688 -0.94442)
(8.88696 -0.0713496 -0.649646)
(10.0134 -0.049903 -0.452617)
(10.8257 -0.0355527 -0.321887)
(11.4221 -0.0258934 -0.234212)
(11.8682 -0.0192863 -0.174355)
(12.2081 -0.0146843 -0.132673)
(12.5187 -0.0219208 -0.110095)
(12.7897 -0.0322893 -0.0975655)
(12.9349 -0.0263594 -0.0796958)
(13.0529 -0.0216607 -0.0655079)
(13.1514 -0.0179919 -0.0543931)
(13.2343 -0.0151039 -0.0456426)
(13.3046 -0.012795 -0.0386536)
(13.3648 -0.0109235 -0.0329915)
(13.4164 -0.00938962 -0.0283421)
(13.4615 -0.00805629 -0.0243332)
(13.4979 -0.00703662 -0.0210535)
(13.541 -0.00545196 -0.0169517)
(13.9021 0.202498 0.20271)
(13.3901 0.720819 0.722099)
(12.1374 1.37622 1.37978)
(8.8448 3.13811 3.12928)
(3.82617 -1.39323 -1.40826)
(6.58733 -1.15409 -1.17547)
(8.29376 -0.812121 -0.82247)
(9.50611 -0.570531 -0.575083)
(10.403 -0.406503 -0.408601)
(11.077 -0.294794 -0.295842)
(11.5893 -0.217914 -0.218483)
(11.9831 -0.164241 -0.164576)
(12.2897 -0.126188 -0.126399)
(12.5862 -0.104798 -0.104946)
(12.8504 -0.0924314 -0.0925485)
(12.9826 -0.0759126 -0.076004)
(13.0912 -0.0627124 -0.0627858)
(13.1826 -0.0522908 -0.0523513)
(13.2602 -0.0440343 -0.0440854)
(13.3264 -0.0374054 -0.0374494)
(13.3833 -0.0320114 -0.03205)
(13.4324 -0.0275643 -0.0275983)
(13.4754 -0.0237259 -0.0237561)
(13.5105 -0.0205688 -0.0205955)
(13.5518 -0.016596 -0.0166194)
(13.9295 0.274272 0.164521)
(13.5813 0.910248 0.545303)
(12.8815 1.80159 0.998782)
(11.8391 4.05987 2.28152)
(9.33115 7.01535 3.79664)
(4.46722 -2.69104 -1.3631)
(8.48797 -2.2232 -1.15971)
(9.34173 -1.54875 -0.815752)
(10.0408 -1.11286 -0.590121)
(10.6461 -0.81711 -0.433399)
(11.1614 -0.608721 -0.322389)
(11.5918 -0.459101 -0.242794)
(11.9467 -0.350609 -0.185217)
(12.2374 -0.271302 -0.143212)
(12.4753 -0.212923 -0.112314)
(12.7259 -0.170582 -0.0944314)
(12.9591 -0.140025 -0.0837442)
(13.0692 -0.116118 -0.069456)
(13.1616 -0.0968612 -0.0578933)
(13.2406 -0.0814046 -0.0486466)
(13.3087 -0.0690013 -0.0412354)
(13.3674 -0.0589457 -0.0352283)
(13.4184 -0.0506952 -0.0303011)
(13.4628 -0.0438309 -0.0262115)
(13.502 -0.0379174 -0.0226656)
(13.5344 -0.0327799 -0.0197338)
(13.5727 -0.0273266 -0.0160107)
(13.963 0.291989 0.126929)
(13.7643 0.921762 0.395808)
(13.5842 1.81911 0.780495)
(13.4058 3.17881 1.22989)
(14.252 5.24026 1.89405)
(17.7626 6.36428 1.90086)
(14.3062 -4.09294 -1.41035)
(11.9197 -2.67747 -0.966157)
(11.4341 -1.83952 -0.661505)
(11.3912 -1.37385 -0.492771)
(11.5161 -1.06148 -0.380866)
(11.7144 -0.831472 -0.298124)
(11.9379 -0.655113 -0.234517)
(12.1599 -0.51821 -0.185205)
(12.3666 -0.411845 -0.146995)
(12.552 -0.329337 -0.117435)
(12.7145 -0.265592 -0.0945936)
(12.9068 -0.21336 -0.0811404)
(13.0966 -0.17192 -0.0728841)
(13.1811 -0.144383 -0.0612241)
(13.2542 -0.121879 -0.0516329)
(13.3182 -0.103486 -0.0438343)
(13.3743 -0.088485 -0.0374849)
(13.4235 -0.0761606 -0.032272)
(13.4669 -0.0659359 -0.0279508)
(13.5052 -0.0573443 -0.024333)
(13.5394 -0.0499042 -0.0211755)
(13.568 -0.0433217 -0.0185501)
(13.6023 -0.0365895 -0.0151811)
(13.9857 0.27619 0.0941254)
(13.9097 0.826702 0.277409)
(13.884 1.48706 0.492262)
(13.98 2.28265 0.646695)
(14.7364 2.88328 0.843539)
(16.0786 2.6786 0.719013)
(16.6445 0.484768 0.115119)
(14.7775 -1.0633 -0.324484)
(13.5593 -1.27192 -0.381653)
(12.9743 -1.13231 -0.336654)
(12.7185 -0.96636 -0.284603)
(12.6257 -0.819213 -0.239608)
(12.6217 -0.691079 -0.201247)
(12.6687 -0.579632 -0.16829)
(12.7438 -0.483744 -0.140146)
(12.8322 -0.402511 -0.116433)
(12.9241 -0.334672 -0.0967272)
(13.0136 -0.278656 -0.0805463)
(13.0994 -0.233421 -0.0673851)
(13.2456 -0.188484 -0.0615278)
(13.3053 -0.160559 -0.0524389)
(13.359 -0.137306 -0.0448208)
(13.4075 -0.117943 -0.038505)
(13.451 -0.101861 -0.0332672)
(13.49 -0.0884447 -0.0289026)
(13.525 -0.0771718 -0.0252405)
(13.5565 -0.0675983 -0.0221453)
(13.5851 -0.0592465 -0.0194243)
(13.6093 -0.051778 -0.0171501)
(13.639 -0.0441633 -0.0141912)
(13.9994 0.242224 0.067793)
(13.999 0.700481 0.193691)
(14.0537 1.16945 0.321077)
(14.2873 1.5605 0.431857)
(14.7253 1.63566 0.447028)
(15.1747 1.48126 0.338414)
(15.2574 0.555033 0.120466)
(14.544 -0.211604 -0.0741764)
(14.0411 -0.488944 -0.145778)
(13.6837 -0.585575 -0.164596)
(13.4604 -0.590762 -0.161445)
(13.3285 -0.55681 -0.149971)
(13.2578 -0.507493 -0.135509)
(13.2289 -0.453147 -0.120309)
(13.2285 -0.398908 -0.105493)
(13.2467 -0.347654 -0.0917012)
(13.2766 -0.300947 -0.0792732)
(13.3128 -0.259502 -0.0683572)
(13.3525 -0.222925 -0.0588643)
(13.3926 -0.192162 -0.0507813)
(13.4311 -0.166209 -0.0439385)
(13.4676 -0.144044 -0.0381011)
(13.5017 -0.125234 -0.0331472)
(13.5333 -0.109312 -0.0289564)
(13.5624 -0.0958103 -0.0254088)
(13.5891 -0.0843148 -0.0223945)
(13.6136 -0.0744482 -0.0198232)
(13.6363 -0.0657753 -0.0175476)
(13.656 -0.0579549 -0.0156385)
(13.6808 -0.0499137 -0.0131121)
(14.0067 0.20095 0.0477294)
(14.0447 0.574152 0.134404)
(14.1312 0.922982 0.214462)
(14.318 1.18481 0.275592)
(14.5909 1.21754 0.279369)
(14.8018 0.929706 0.204518)
(14.7785 0.475721 0.101923)
(14.5342 0.0529136 0.00210961)
(14.2313 -0.207084 -0.0551536)
(13.9757 -0.341668 -0.0825559)
(13.7867 -0.398172 -0.092928)
(13.6552 -0.410182 -0.0939313)
(13.5686 -0.397741 -0.0900043)
(13.5159 -0.372309 -0.0835886)
(13.4881 -0.340584 -0.076048)
(13.4783 -0.306658 -0.0682119)
(13.4813 -0.273075 -0.0605891)
(13.4929 -0.241412 -0.0534843)
(13.5099 -0.212174 -0.0470224)
(13.5302 -0.186249 -0.0412735)
(13.5521 -0.16351 -0.0362644)
(13.5741 -0.143632 -0.0318915)
(13.5959 -0.126387 -0.0280979)
(13.6169 -0.111499 -0.0248265)
(13.637 -0.0986695 -0.0220135)
(13.656 -0.0876041 -0.019594)
(13.6739 -0.0780139 -0.0175129)
(13.691 -0.06953 -0.0156622)
(13.7061 -0.0618345 -0.0141076)
(13.7261 -0.0538005 -0.0120103)
(14.0097 0.159724 0.0330953)
(14.0629 0.458772 0.0930281)
(14.1558 0.72848 0.1458)
(14.3077 0.921111 0.182977)
(14.496 0.951145 0.186219)
(14.6334 0.773822 0.147638)
(14.6364 0.480804 0.0890376)
(14.509 0.182718 0.0296781)
(14.3238 -0.0355488 -0.0118648)
(14.1451 -0.174406 -0.0373407)
(13.9957 -0.253263 -0.0512336)
(13.8795 -0.291073 -0.0574419)
(13.7936 -0.302448 -0.0588616)
(13.7329 -0.297416 -0.0573964)
(13.6921 -0.282628 -0.0542486)
(13.6668 -0.262497 -0.0502126)
(13.6533 -0.23996 -0.0458104)
(13.6485 -0.216979 -0.0413827)
(13.65 -0.194681 -0.0371261)
(13.656 -0.173759 -0.0331735)
(13.6648 -0.154757 -0.0295992)
(13.6754 -0.137712 -0.026394)
(13.687 -0.122585 -0.0235503)
(13.6991 -0.109272 -0.0210504)
(13.7113 -0.0976221 -0.0188673)
(13.7234 -0.0874536 -0.0169678)
(13.7353 -0.0785703 -0.0153231)
(13.7471 -0.0706812 -0.0138582)
(13.758 -0.0635108 -0.0126309)
(13.7732 -0.0558665 -0.0109406)
(14.0099 0.122537 0.0227611)
(14.0655 0.359455 0.0646279)
(14.1536 0.574123 0.10109)
(14.2792 0.726083 0.126085)
(14.4203 0.760706 0.13014)
(14.5241 0.654508 0.109728)
(14.5446 0.459024 0.0754652)
(14.4811 0.244403 0.0383659)
(14.3691 0.0667749 0.00868684)
(14.2466 -0.0618744 -0.012326)
(14.1332 -0.14648 -0.0258888)
(14.0369 -0.196641 -0.033763)
(13.9592 -0.222127 -0.0376522)
(13.8988 -0.230686 -0.0388508)
(13.8534 -0.2281 -0.0382913)
(13.8203 -0.218527 -0.0366378)
(13.7973 -0.204899 -0.0343559)
(13.7822 -0.189269 -0.0317688)
(13.7732 -0.17298 -0.0290876)
(13.7689 -0.156917 -0.0264572)
(13.7681 -0.141728 -0.0239749)
(13.7698 -0.127686 -0.0216793)
(13.7732 -0.114922 -0.0195914)
(13.7779 -0.103474 -0.0177186)
(13.7835 -0.0933046 -0.0160576)
(13.7897 -0.0843345 -0.0145968)
(13.7963 -0.076455 -0.0133264)
(13.8034 -0.0694587 -0.0121982)
(13.8103 -0.0631327 -0.0112614)
(13.8211 -0.0562035 -0.00994445)
(14.0085 0.0908477 0.0156403)
(14.0597 0.276638 0.0453855)
(14.1387 0.450543 0.0717593)
(14.2446 0.575903 0.0900806)
(14.3586 0.614724 0.0948778)
(14.4467 0.553027 0.0842233)
(14.4804 0.421343 0.0636354)
(14.4561 0.265168 0.039629)
(14.3919 0.123474 0.0183731)
(14.3107 0.0111406 0.00171011)
(14.2275 -0.0700288 -0.0102786)
(14.1507 -0.123977 -0.0182482)
(14.084 -0.156537 -0.023102)
(14.0281 -0.173306 -0.0256635)
(13.9828 -0.178922 -0.0266033)
(13.9467 -0.176987 -0.0264367)
(13.9186 -0.170187 -0.0255484)
(13.8972 -0.16049 -0.0242211)
(13.8813 -0.149272 -0.0226541)
(13.8699 -0.137495 -0.0209893)
(13.8621 -0.125842 -0.0193289)
(13.8569 -0.114709 -0.0177316)
(13.854 -0.104335 -0.016235)
(13.8528 -0.0948495 -0.0148617)
(13.8528 -0.086304 -0.0136232)
(13.854 -0.0786984 -0.012523)
(13.856 -0.0720041 -0.0115641)
(13.8589 -0.0660982 -0.0107208)
(13.8622 -0.0608581 -0.0100329)
(13.8689 -0.0549198 -0.00905022)
(14.0061 0.0648352 0.0108264)
(14.0497 0.208746 0.0325137)
(14.1187 0.350258 0.0524811)
(14.21 0.455324 0.0668637)
(14.3082 0.495836 0.0720682)
(14.3895 0.462452 0.0668592)
(14.4336 0.373928 0.0542512)
(14.4357 0.26043 0.0382775)
(14.4045 0.149588 0.0228683)
(14.354 0.0554364 0.00977411)
(14.2954 -0.0174215 -0.000446369)
(14.2363 -0.0696473 -0.00789385)
(14.181 -0.104302 -0.0129791)
(14.1316 -0.125146 -0.016192)
(14.0888 -0.135703 -0.0179911)
(14.0524 -0.138901 -0.0187562)
(14.0221 -0.13705 -0.0187912)
(13.9972 -0.131918 -0.0183327)
(13.9769 -0.124803 -0.0175577)
(13.9606 -0.116642 -0.0165984)
(13.9476 -0.108111 -0.0155535)
(13.9374 -0.0996534 -0.0144889)
(13.9295 -0.0915578 -0.0134507)
(13.9235 -0.0840084 -0.0124703)
(13.9191 -0.0771141 -0.0115688)
(13.916 -0.0709353 -0.0107594)
(13.914 -0.0655124 -0.0100536)
(13.9132 -0.0608036 -0.00944484)
(13.9133 -0.0568176 -0.00896371)
(13.9161 -0.0521105 -0.00827462)
(14.0031 0.0441255 0.00759793)
(14.0381 0.153562 0.0240165)
(14.0978 0.267255 0.0398919)
(14.1787 0.354192 0.0518343)
(14.2678 0.393283 0.057198)
(14.3468 0.37792 0.0551136)
(14.3998 0.319679 0.0473207)
(14.4208 0.238581 0.0364203)
(14.4136 0.154176 0.0250412)
(14.3866 0.0783299 0.0146772)
(14.348 0.0163944 0.00602448)
(14.3043 -0.0305351 -0.000742782)
(14.2598 -0.0637262 -0.00574752)
(14.2173 -0.085508 -0.0092534)
(14.1782 -0.098383 -0.0115537)
(14.1432 -0.104608 -0.0129186)
(14.1123 -0.106066 -0.013582)
(14.0855 -0.104255 -0.0137368)
(14.0625 -0.100316 -0.0135362)
(14.0429 -0.0950992 -0.0130995)
(14.0263 -0.0892298 -0.0125194)
(14.0123 -0.0831426 -0.0118633)
(14.0005 -0.0771364 -0.0111811)
(13.9907 -0.0714166 -0.0105093)
(13.9826 -0.0661231 -0.00987495)
(13.9759 -0.0613561 -0.00929785)
(13.9706 -0.0572131 -0.00879452)
(13.9664 -0.0537241 -0.00837439)
(13.9636 -0.051084 -0.00805888)
(13.9626 -0.0478273 -0.00762466)
(13.9998 0.0281107 0.00538492)
(14.0265 0.108749 0.0184732)
(14.0789 0.196716 0.0318245)
(14.1527 0.265615 0.0422589)
(14.2368 0.30034 0.0476866)
(14.316 0.296122 0.0474742)
(14.3767 0.259783 0.04269)
(14.4122 0.20416 0.0350727)
(14.4232 0.142699 0.026463)
(14.4147 0.0846806 0.0181004)
(14.3925 0.0351206 0.0106878)
(14.3621 -0.00413021 0.00453678)
(14.3275 -0.033265 -0.000310032)
(14.2918 -0.0535423 -0.00395966)
(14.2568 -0.0666101 -0.00658374)
(14.2239 -0.0741005 -0.00836778)
(14.1935 -0.077451 -0.00948806)
(14.166 -0.0778505 -0.0101004)
(14.1413 -0.076236 -0.0103357)
(14.1195 -0.0733232 -0.0103012)
(14.1002 -0.0696489 -0.0100831)
(14.0834 -0.0656008 -0.00974845)
(14.0686 -0.0614547 -0.00934866)
(14.0558 -0.0574101 -0.00892348)
(14.0446 -0.0536143 -0.00850338)
(14.0349 -0.0501861 -0.00811317)
(14.0265 -0.0472662 -0.00777144)
(14.0194 -0.0449356 -0.00750096)
(14.0138 -0.0436348 -0.00731249)
(14.0088 -0.0420301 -0.00709879)
(13.997 0.0159723 0.00371543)
(14.0169 0.0720804 0.0149446)
(14.0639 0.134916 0.026923)
(14.133 0.185095 0.0365091)
(14.2145 0.213 0.0420559)
(14.2951 0.215119 0.0430943)
(14.3626 0.194833 0.0402974)
(14.41 0.159744 0.0348674)
(14.4358 0.11847 0.0281551)
(14.4426 0.0776171 0.021197)
(14.4343 0.0412694 0.0146728)
(14.4155 0.0113475 0.00896239)
(14.39 -0.0117592 0.00421691)
(14.3608 -0.0285856 0.000437113)
(14.3302 -0.0400959 -0.00245957)
(14.2997 -0.0473569 -0.00459322)
(14.2704 -0.0513678 -0.0060944)
(14.2428 -0.0529889 -0.00708872)
(14.2173 -0.0529196 -0.00768886)
(14.194 -0.0517072 -0.00799174)
(14.1728 -0.0497699 -0.0080785)
(14.1537 -0.0474182 -0.008015)
(14.1366 -0.0448787 -0.00785391)
(14.1212 -0.0423218 -0.00763744)
(14.1075 -0.0398797 -0.00739848)
(14.0951 -0.0376689 -0.00716588)
(14.0841 -0.035852 -0.0069581)
(14.074 -0.0345256 -0.00680849)
(14.0658 -0.0343975 -0.00671229)
(14.0563 -0.0345569 -0.00668857)
(13.9961 0.00631709 0.00216259)
(14.0108 0.0415097 0.013009)
(14.0533 0.0791569 0.0244154)
(14.1184 0.110132 0.033681)
(14.1978 0.129275 0.0395847)
(14.2802 0.133995 0.0417071)
(14.3545 0.125188 0.0404123)
(14.413 0.106651 0.0365518)
(14.4525 0.0831099 0.0311585)
(14.4734 0.0585867 0.0251348)
(14.4783 0.0358631 0.0191498)
(14.4707 0.0164793 0.0136382)
(14.4542 0.000987744 0.00883372)
(14.4318 -0.0107137 0.0048217)
(14.4059 -0.0190771 0.00158938)
(14.3784 -0.0246884 -0.000931304)
(14.3507 -0.0281408 -0.00283441)
(14.3237 -0.0299678 -0.00422169)
(14.2979 -0.0306153 -0.00519156)
(14.2736 -0.0304398 -0.00583329)
(14.251 -0.0297166 -0.00622457)
(14.2301 -0.0286553 -0.00643121)
(14.2109 -0.0274083 -0.00650721)
(14.1934 -0.0260976 -0.00649766)
(14.1773 -0.0248142 -0.00643752)
(14.1625 -0.0236473 -0.00635952)
(14.1489 -0.0227541 -0.00628155)
(14.1359 -0.0221514 -0.00624407)
(14.1253 -0.0227851 -0.00621479)
(14.1095 -0.024606 -0.00635391)
(13.9983 0.000615539 0.000986388)
(14.0093 0.0161815 0.0119807)
(14.0453 0.033384 0.0234354)
(14.1042 0.0491295 0.0330854)
(14.1798 0.060865 0.0399705)
(14.263 0.0668009 0.043605)
(14.3442 0.066438 0.0440418)
(14.4149 0.0607187 0.0417988)
(14.4699 0.0514362 0.0376554)
(14.5076 0.0404565 0.0324091)
(14.5288 0.0293103 0.0267377)
(14.5357 0.0190465 0.02115)
(14.5312 0.0102415 0.0159819)
(14.5183 0.00310021 0.011419)
(14.4995 -0.00241342 0.00753492)
(14.477 -0.0064741 0.00432725)
(14.4525 -0.00931812 0.00174675)
(14.4271 -0.0111909 -0.000280493)
(14.4019 -0.0123173 -0.00183749)
(14.3773 -0.0128895 -0.00300697)
(14.3538 -0.0130633 -0.00386551)
(14.3314 -0.0129627 -0.00448127)
(14.3104 -0.0126822 -0.00491251)
(14.2906 -0.0122957 -0.00520945)
(14.2722 -0.0118642 -0.00541226)
(14.2548 -0.0114305 -0.0055593)
(14.2386 -0.0111007 -0.00566976)
(14.2221 -0.0108518 -0.0057969)
(14.2096 -0.0111192 -0.00585972)
(14.1837 -0.0128557 -0.00613451)
(13.9145 0.0601292 0.304803)
(13.5022 0.203811 1.03464)
(12.6304 0.221439 2.05791)
(10.7675 0.255659 4.51387)
(1.5547 -0.0181087 -1.27758)
(7.26526 -0.140425 -2.65491)
(8.5439 -0.101789 -1.80551)
(9.49823 -0.07314 -1.26715)
(10.2753 -0.0529664 -0.911263)
(10.9061 -0.0388365 -0.666812)
(11.4139 -0.0288728 -0.495434)
(11.8206 -0.0217861 -0.373753)
(12.1461 -0.016694 -0.286376)
(12.4078 -0.0130002 -0.222986)
(12.6686 -0.0196709 -0.178613)
(12.9065 -0.0291308 -0.147324)
(13.027 -0.0240329 -0.121601)
(13.1271 -0.0199393 -0.100989)
(13.2121 -0.0166973 -0.0845542)
(13.2848 -0.0141135 -0.071442)
(13.3471 -0.0120269 -0.0608608)
(13.401 -0.0103214 -0.0522132)
(13.4477 -0.00891357 -0.0450435)
(13.4888 -0.00768444 -0.0388774)