/*--------------------------------*- C++ -*----------------------------------*\
  =========                 |
  \\      /  F ield         | OpenFOAM: The Open Source CFD Toolbox
   \\    /   O peration     | Website:  https://openfoam.org
    \\  /    A nd           | Version:  10
     \\/     M anipulation  |
\*---------------------------------------------------------------------------*/
FoamFile
{
    format      ascii;
    class       volScalarField;
    location    "700";
    object      k;
}
// * * * * * * * * * * * * * * * * * * * * * * * * * * * * * * * * * * * * * //

dimensions      [0 2 -2 0 0 0 0];

internalField   nonuniform List<scalar> 
27507
(
348.951
348.721
350.108
309.541
25.2024
46.8049
63.5782
76.5714
85.8713
91.867
95.2242
96.6126
96.5926
95.5008
93.4785
91.0507
88.4119
85.6537
82.8432
80.0274
77.2398
74.5061
71.8529
69.3471
67.3102
348.691
347.418
348.322
324.498
31.3219
58.2429
75.4523
86.3884
93.2324
97.1854
99.0325
99.3503
98.5695
97.1436
94.9271
92.1281
89.2128
86.2455
83.2739
80.3331
77.4477
74.6373
71.9235
69.3698
67.2972
348.215
345.457
344.766
335.264
5.04811
64.8979
90.1447
101.452
106.42
108.231
108.266
107.185
105.355
103.006
100.471
97.411
93.9956
90.6075
87.2742
84.0174
80.8532
77.7922
74.8432
72.0196
69.3782
67.2394
347.642
343.226
338.262
332.032
298.559
29.0498
24.835
114.9
128.229
131.444
130.8
128.234
124.733
120.817
116.741
112.628
108.537
104.562
100.314
96.195
92.25
88.4759
84.8699
81.4287
78.1473
75.0227
72.0591
69.3047
67.0777
347.069
341.117
334.323
324.287
311.066
278.476
230.798
208.695
191.087
177.337
166.083
156.38
147.698
139.785
132.519
125.823
119.633
113.894
108.551
103.047
98.2606
93.7713
89.5575
85.5969
81.8698
78.359
75.0503
71.9381
69.0615
66.7342
346.557
339.349
331.199
320.671
305.776
289.513
264.121
237.985
217.95
200.414
185.191
171.903
160.188
149.761
140.412
131.98
124.341
117.394
111.068
105.195
99.8152
94.8502
90.2489
85.9731
81.9897
78.2704
74.7926
71.5432
68.5511
66.1205
346.125
337.882
328.631
317.502
303.481
286.057
266.523
246.2
227.041
209.477
193.618
179.393
166.647
155.208
144.916
135.631
127.232
119.615
112.691
106.352
100.552
95.2302
90.3304
85.8065
81.6188
77.7327
74.1198
70.7605
67.673
65.1432
345.765
336.621
326.384
314.547
300.614
284.45
266.683
248.229
230.162
213.078
197.26
182.788
169.635
157.719
146.934
137.171
128.325
120.299
113.006
106.354
100.28
94.7207
89.6203
84.9294
80.6048
76.6083
72.9074
69.4781
66.3265
63.7066
345.46
335.447
324.174
311.428
297.07
281.167
264.153
246.646
229.352
212.78
197.225
182.827
169.612
157.55
146.575
136.606
127.554
119.331
111.855
105.046
98.8339
93.1577
87.9602
83.1911
78.8059
74.7644
71.0325
67.5824
64.4081
61.7109
345.192
334.216
321.668
307.671
292.418
276.15
259.236
242.132
225.315
209.169
193.946
179.785
166.723
154.745
143.813
133.858
124.804
116.572
109.084
102.267
96.0518
90.3784
85.1899
80.4365
76.0736
72.0604
68.3621
64.9486
61.8041
59.0456
344.946
332.719
318.381
302.58
285.912
268.791
251.554
234.518
217.99
202.225
187.396
173.603
160.864
149.17
138.483
128.743
119.879
111.817
104.483
97.8089
91.7282
86.182
81.1151
76.4787
72.229
68.3258
64.7349
61.424
58.3761
55.577
344.703
330.559
313.415
294.929
276.231
257.857
240.051
222.952
206.689
191.368
177.066
163.815
151.606
140.415
130.196
120.887
112.418
104.718
97.719
91.3531
85.5586
80.2783
75.4596
71.0554
67.0237
63.3251
59.9283
56.7959
53.9326
51.123
344.435
326.761
304.764
282.236
260.847
241.006
222.662
205.654
189.884
175.276
161.792
149.388
138.02
127.635
118.173
109.568
101.751
94.654
88.2097
82.3556
77.0332
72.1893
67.7742
63.7438
60.0595
56.6825
53.5896
50.7257
48.1683
45.3992
343.978
318.202
287.12
258.793
234.437
213.538
195.291
179.077
164.489
151.242
139.182
128.194
118.19
109.093
100.834
93.3414
86.5505
80.3969
74.82
69.7626
65.1722
61.0012
57.2052
53.745
50.5875
47.6928
45.0597
42.5787
40.5017
37.8758
341.91
291.591
243.99
209.624
184.199
164.606
148.655
135.164
123.421
112.988
103.625
95.1786
87.5466
80.6381
74.3839
68.7284
63.6175
58.9995
54.8256
51.0504
47.6315
44.5323
41.7168
39.1546
36.8243
34.6757
32.7698
30.854
29.518
27.2851
317.06
174.865
118.163
91.1685
75.6737
65.5792
58.2051
52.3738
47.5082
43.299
39.583
36.2665
33.29
30.6179
28.2137
26.0451
24.0876
22.3203
20.7242
19.2811
17.9765
16.7917
15.7233
14.7373
13.8696
13.0183
12.3508
11.5397
11.1428
10.1564
348.69
347.416
348.306
323.92
30.5724
57.9037
75.3029
86.3201
93.1991
97.168
99.0228
99.3444
98.5658
97.1408
94.9248
92.1263
89.2115
86.2445
83.2731
80.3324
77.4472
74.6368
71.9232
69.3695
67.2969
348.448
346.36
346.707
331.039
41.8614
70.6309
86.2762
94.8996
99.6065
101.86
102.439
101.839
100.395
98.6552
96.2521
93.1219
89.9555
86.7953
83.674
80.6162
77.639
74.7562
71.9852
69.3858
67.2791
348.009
344.658
343.497
333.227
128.059
17.9142
82.5218
101.953
109.86
112.65
112.91
111.786
109.837
107.354
104.514
101.738
98.5272
94.842
91.2451
87.7481
84.3624
81.0961
77.954
74.9404
72.0653
69.3824
67.2122
347.482
342.632
337.143
331.329
305.461
95.4767
67.8242
134.688
139.599
138.992
136.204
132.291
127.856
123.246
118.635
114.103
109.684
105.55
101.187
96.8664
92.7601
88.8563
85.1459
81.6204
78.2712
75.0918
72.084
69.2934
67.0385
346.953
340.724
333.718
327.395
311.553
283.137
241.595
217.57
197.857
182.644
170.266
159.707
150.37
141.947
134.272
127.241
120.775
114.807
109.276
103.691
98.7617
94.1538
89.8419
85.8005
82.0071
78.4419
75.0886
71.9399
69.0331
66.6817
346.476
339.082
330.755
320.079
305.581
290.13
265.934
240.49
220.561
202.901
187.448
173.892
161.91
151.233
141.657
133.023
125.205
118.101
111.637
105.647
100.167
95.1178
90.4451
86.1091
82.0752
78.3137
74.8008
71.5223
68.5057
66.0547
346.069
337.701
328.33
317.131
303.235
286.165
267.083
247.171
228.223
210.723
194.834
180.524
167.669
156.11
145.699
136.299
127.794
120.08
113.068
106.651
100.783
95.4023
90.4514
85.8835
81.6583
77.7405
74.1008
70.7191
67.6123
65.0656
345.726
336.496
326.176
314.292
300.401
284.389
266.837
248.605
230.696
213.697
197.906
183.421
170.228
158.257
147.41
137.583
128.674
120.588
113.238
106.536
100.416
94.8161
89.6799
84.9578
80.6063
76.5865
72.8658
69.4197
66.2534
63.6197
345.433
335.359
324.026
311.239
296.888
281.05
264.142
246.756
229.565
213.062
197.543
183.156
169.932
157.847
146.843
136.839
127.751
119.492
111.981
105.139
98.8977
93.1944
87.9725
83.1819
78.7777
74.7198
70.9736
67.5112
64.3261
61.6178
345.174
334.153
321.558
307.523
292.258
276.013
259.15
242.111
225.357
209.26
194.071
179.927
166.868
154.886
143.94
133.969
124.895
116.643
109.135
102.297
96.0635
90.3725
85.168
80.4002
76.0244
71.9999
68.2917
64.8696
61.7175
58.9502
344.933
332.673
318.296
302.459
285.769
268.647
251.43
234.427
217.938
202.207
187.403
173.628
160.899
149.208
138.519
128.773
119.9
111.827
104.483
97.7967
91.7049
86.148
81.0711
76.4255
72.1675
68.2568
64.6592
61.3425
58.2895
55.4836
344.695
330.526
313.348
294.828
276.101
257.712
239.908
222.824
206.583
191.285
177.004
163.769
151.573
140.39
130.174
120.865
112.394
104.691
97.6872
91.3158
85.5155
80.2293
75.4048
70.995
66.9582
63.2549
59.8538
56.7177
53.8511
51.0364
344.43
326.737
304.711
282.148
260.728
240.864
222.512
205.508
189.75
175.158
161.691
149.304
137.949
127.574
118.12
109.52
101.706
94.6091
88.1643
82.3086
76.984
72.1373
67.7192
63.6858
59.9985
56.6186
53.523
50.6566
48.0972
45.3247
343.975
318.186
287.078
258.717
234.326
213.402
195.141
178.926
164.346
151.112
139.068
128.096
118.106
109.022
100.772
93.2872
86.5016
80.3515
74.7765
69.7198
65.1293
60.9575
57.1603
53.6985
50.5393
47.6428
45.0079
42.5253
40.4464
37.8193
341.909
291.581
243.955
209.558
184.101
164.485
148.52
135.028
123.291
112.87
103.522
95.0911
87.473
80.5775
74.3342
68.6872
63.5826
58.9692
54.7983
51.0248
47.6067
44.5075
41.6913
39.1283
36.7968
34.6469
32.7395
30.8231
29.4836
27.2535
317.06
174.86
118.143
91.1338
75.6247
65.5204
58.1409
52.3095
47.4477
43.2448
39.5365
36.2279
33.2588
30.5926
28.1935
26.0291
24.0749
22.3101
20.7157
19.2738
17.9699
16.7853
15.7169
14.7306
13.8628
13.0107
12.3431
11.5316
11.1326
10.1507
348.214
345.454
344.749
335.142
4.64524
64.0701
89.7568
101.241
106.304
108.164
108.227
107.16
105.34
102.996
100.463
97.4052
93.9912
90.6041
87.2715
84.0153
80.8515
77.7908
74.842
72.0186
69.3773
67.2386
348.008
344.656
343.495
333.346
96.5983
20.1565
82.5096
101.809
109.753
112.585
112.87
111.762
109.822
107.344
104.507
101.733
98.5236
94.8393
91.2429
87.7464
84.361
81.095
77.9531
74.9397
72.0646
69.3819
67.2117
347.644
343.271
340.982
332.721
292.335
104.217
122.139
127.263
127.732
125.912
122.962
119.464
115.71
111.845
107.945
104.337
100.444
96.3055
92.3484
88.5649
84.9508
81.5022
78.2143
75.084
72.1152
69.3567
67.1279
347.197
341.599
335.275
329.481
310.442
262.031
195.036
177.85
170.23
162.119
154.726
147.806
141.158
134.771
128.685
122.92
117.473
112.325
107.583
102.692
98.0271
93.6394
89.5067
85.6103
81.9339
78.4623
75.1839
72.0956
69.2391
66.932
346.743
340.007
332.421
322.182
311.352
287.628
257.776
230.963
209.558
192.397
178.252
166.218
155.687
146.297
137.828
130.139
123.121
116.692
110.775
104.803
99.6238
94.8065
90.3201
86.1341
82.2216
78.5582
75.1241
71.9091
68.9471
66.5505
346.328
338.594
329.924
319.181
304.958
286.575
265.583
244.37
224.666
206.927
191.18
177.234
164.835
153.753
143.799
134.822
126.696
119.32
112.615
106.42
100.764
95.5643
90.7639
86.3197
82.1947
78.3571
74.7809
71.4496
68.3883
65.8992
345.965
337.366
327.771
316.473
302.719
286.216
267.781
248.661
230.111
212.764
196.861
182.435
169.408
157.653
147.04
137.445
128.755
120.871
113.705
107.151
101.162
95.6751
90.6325
85.9858
81.6933
77.7185
74.0307
70.6085
67.4667
64.8884
345.653
336.262
325.785
313.808
299.967
284.199
266.995
249.154
231.531
214.697
198.969
184.473
171.22
159.16
148.208
138.271
129.253
121.062
113.614
106.822
100.62
94.9483
89.7485
84.9707
80.571
76.5098
72.7538
69.2776
66.0848
63.4254
345.382
335.192
323.74
310.869
296.513
280.776
264.042
246.869
229.859
213.483
198.035
183.673
170.441
158.321
147.267
137.205
128.055
119.734
112.163
105.264
98.9697
93.2187
87.954
83.1253
78.6878
74.6008
70.8296
67.3458
64.1416
61.4127
345.139
334.031
321.342
307.227
291.926
275.708
258.926
241.998
225.355
209.349
194.22
180.11
167.064
155.075
144.111
134.112
125.007
116.72
109.177
102.306
96.0396
90.3186
85.0866
80.294
75.8961
71.8521
68.127
64.6903
61.5251
58.7416
344.909
332.583
318.128
302.214
285.47
268.335
251.144
234.195
217.77
202.099
187.344
173.602
160.895
149.212
138.522
128.768
119.882
111.793
104.431
97.7272
91.6173
86.0429
80.9496
76.2888
72.0171
68.0941
64.4858
61.1596
58.0984
55.28
344.679
330.459
313.214
294.62
275.829
257.403
239.592
222.528
206.321
191.064
176.82
163.617
151.445
140.279
130.073
120.768
112.297
104.59
97.5804
91.2015
85.3929
80.0981
75.2649
70.8469
66.8022
63.0918
59.6843
56.5424
53.6714
50.8474
344.419
326.689
304.604
281.969
260.479
240.564
222.186
205.183
189.442
174.877
161.442
149.085
137.757
127.404
117.966
109.378
101.571
94.4788
88.0357
82.1796
76.8531
72.0036
67.5821
63.5449
59.8538
56.4701
53.371
50.5012
47.9397
45.1609
343.969
318.154
286.992
258.561
234.099
213.119
194.825
178.601
164.029
150.817
138.802
127.859
117.897
108.838
100.608
93.1402
86.3671
80.226
74.6571
69.6042
65.0156
60.8443
57.0466
53.5836
50.4228
47.5243
44.8875
42.4028
40.3218
37.6932
341.907
291.561
243.887
209.427
183.906
164.239
148.244
134.743
123.014
112.612
103.291
94.8883
87.2969
80.4266
74.205
68.5757
63.485
58.882
54.7185
50.9501
47.535
44.4374
41.6218
39.0583
36.7259
34.5748
32.6655
30.7494
29.4005
27.1838
317.06
174.85
118.107
91.0699
75.5326
65.4073
58.0151
52.1807
47.3238
43.1311
39.4362
36.1418
33.1862
30.5314
28.1423
25.9863
24.039
22.2795
20.6891
19.25
17.9479
16.7646
15.6967
14.7106
13.8423
12.9912
12.3174
11.5271
11.0427
10.1909
347.642
343.221
338.242
332.011
298.878
22.1675
114.816
128.055
131.254
130.652
128.13
124.664
120.77
116.709
112.605
108.521
104.55
100.304
96.1877
92.2443
88.4713
84.8662
81.4256
78.1448
75.0206
72.0573
69.3031
67.0763
347.482
342.629
337.134
331.335
305.705
99.3536
58.1071
134.548
139.485
138.871
136.101
132.215
127.803
123.209
118.609
114.085
109.671
105.54
101.18
96.8608
92.7556
88.8526
85.1429
81.6179
78.2691
75.0901
72.0825
69.2922
67.0373
347.197
341.598
335.273
329.493
310.498
262.272
195.633
177.792
170.136
162.066
154.683
147.768
141.127
134.748
128.668
122.908
117.464
112.318
107.578
102.689
98.0241
93.637
89.5047
85.6087
81.9326
78.4611
75.1829
72.0947
69.2384
66.9313
346.845
340.361
333.058
322.974
311.612
285.583
250.723
221.231
200.537
184.708
171.974
161.209
151.738
143.211
135.445
128.33
121.786
115.744
110.137
104.459
99.3826
94.6535
90.2392
86.1117
82.2459
78.6197
75.2157
72.0248
69.0833
66.7062
346.48
339.119
330.867
320.41
305.919
290.643
266.459
242.271
220.932
202.73
187.21
173.804
162.044
151.59
142.212
133.744
126.06
119.065
112.666
106.097
100.613
95.538
90.8351
86.4684
82.4059
78.6184
75.0821
71.7827
68.7495
66.2922
346.136
337.968
328.86
317.933
304.15
287.042
267.724
247.836
228.776
211.198
195.288
180.999
168.181
156.663
146.288
136.916
128.431
120.731
113.737
107.292
101.421
96.0347
91.0749
86.495
82.2556
78.3221
74.6659
71.2679
68.1493
65.6089
345.828
336.922
327.024
315.564
301.962
286.034
268.393
250.06
232.03
214.937
199.087
184.575
171.377
159.41
148.57
138.747
129.839
121.751
114.398
107.676
101.539
95.9213
90.7648
86.02
81.6436
77.5975
73.8497
70.3768
67.1907
64.5699
345.556
335.942
325.241
313.118
299.303
283.785
266.982
249.582
232.309
215.699
200.075
185.592
172.288
160.134
149.066
139.002
129.855
121.539
113.973
107.072
100.772
95.0117
89.7338
84.8877
80.4288
76.3167
72.5175
69.0045
65.7791
63.0852
345.313
334.957
323.33
310.322
295.926
280.278
263.736
246.804
230.016
213.804
198.457
184.14
170.909
158.759
147.652
137.526
128.305
119.912
112.271
105.305
98.9485
93.1408
87.8251
82.9511
78.4738
74.3524
70.5517
67.0427
63.8157
61.0594
345.089
333.856
321.022
306.777
291.399
275.183
258.477
241.671
225.159
209.266
194.219
180.16
167.138
155.151
144.172
134.147
125.009
116.685
109.104
102.195
95.8932
90.1385
84.8756
80.0551
75.6323
71.5667
67.8229
64.3702
61.1906
58.386
344.874
332.451
317.873
301.833
284.99
267.808
250.624
233.725
217.371
201.774
187.082
173.388
160.714
149.05
138.367
128.611
119.717
111.615
104.238
97.5163
91.3888
85.7973
80.6877
76.0119
71.7265
67.7914
64.1726
60.8374
57.7685
54.9345
344.655
330.36
313.009
294.292
275.39
256.886
239.042
221.984
205.811
190.6
176.404
163.245
151.111
139.973
129.788
120.496
112.032
104.328
97.3177
90.9358
85.1225
79.8221
74.983
70.5589
66.5085
62.7927
59.3807
56.2346
53.3611
50.526
344.404
326.616
304.438
281.685
260.077
240.07
221.635
204.613
188.883
174.349
160.952
148.636
137.348
127.03
117.621
109.055
101.266
94.1866
87.7526
81.9025
76.5797
71.7321
67.3112
63.2738
59.582
56.1973
53.0974
50.2261
47.6658
44.8794
343.961
318.104
286.86
258.317
233.739
212.662
194.302
178.05
163.479
150.29
138.31
127.408
117.486
108.464
100.268
92.8281
86.0781
79.9555
74.4009
69.3589
64.7783
60.6128
56.8191
53.3588
50.1998
47.3023
44.6666
42.1811
40.1035
37.4694
341.905
291.531
243.784
209.228
183.606
163.856
147.803
134.278
122.55
112.17
102.881
94.5163
86.9626
80.1294
73.9409
68.3401
63.2729
58.6887
54.5399
50.7827
47.3761
44.2845
41.4731
38.9124
36.582
34.4314
32.5239
30.6055
29.261
27.039
317.059
174.837
118.056
90.9774
75.3973
65.2382
57.8232
51.9799
47.1255
42.9439
39.2654
35.9896
33.0528
30.4142
28.0399
25.897
23.9606
22.2099
20.6266
19.1929
17.8951
16.7147
15.6491
14.6642
13.7973
12.9458
12.274
11.4804
11.0008
10.144
347.069
341.125
334.394
328.076
311.388
278.864
229.945
208.573
191.027
177.262
165.995
156.298
147.629
139.73
132.477
125.791
119.608
113.875
108.535
103.036
98.2511
93.7636
89.5511
85.5915
81.8654
78.3552
75.0471
71.9354
69.0591
66.7321
346.953
340.725
333.718
327.462
311.642
283.218
241.347
217.339
197.795
182.584
170.2
159.643
150.315
141.902
134.237
127.214
120.754
114.791
109.263
103.681
98.7536
94.1471
89.8364
85.7959
82.0032
78.4386
75.0858
71.9375
69.031
66.6798
346.744
340.007
332.42
322.187
311.377
287.644
257.788
230.955
209.528
192.363
178.217
166.182
155.656
146.27
137.806
130.121
123.107
116.681
110.766
104.797
99.6182
94.8018
90.3162
86.1308
82.2188
78.5558
75.1221
71.9074
68.9455
66.5491
346.48
339.119
330.867
320.411
305.923
290.646
266.461
242.271
220.924
202.719
187.197
173.791
162.032
151.58
142.203
133.736
126.054
119.06
112.662
106.093
100.61
95.5357
90.8331
86.4667
82.4045
78.6172
75.081
71.7818
68.7486
66.2914
346.199
338.187
329.255
318.471
304.746
291.699
271.15
249.689
229.428
211.168
194.99
180.683
167.98
156.633
146.444
137.254
128.934
121.383
114.508
107.25
101.461
96.1227
91.197
86.644
82.4258
78.509
74.8656
71.4777
68.3684
65.8414
345.926
337.279
327.685
316.488
302.986
286.846
268.902
250.239
231.954
214.715
198.817
184.324
171.189
159.304
148.552
138.816
129.989
121.975
114.696
108.004
101.915
96.3396
91.2162
86.4969
82.1395
78.107
74.3682
70.9013
67.7224
65.1228
345.673
336.411
326.153
314.457
300.92
285.443
268.505
250.893
233.408
216.635
200.909
186.376
173.059
160.917
149.875
139.842
130.726
122.44
114.903
108.016
101.731
95.9817
90.7104
85.8662
81.4048
77.2867
73.4783
69.9545
66.7229
64.0532
345.442
335.559
324.576
312.237
298.375
283.034
266.581
249.589
232.669
216.308
200.823
186.388
173.063
160.839
149.672
139.495
130.23
121.797
114.118
107.112
100.717
94.8708
89.5166
84.6037
80.087
75.9257
72.0848
68.5367
65.2791
62.5459
345.229
334.665
322.806
309.594
295.089
279.469
263.076
246.358
229.786
213.749
198.522
184.271
171.063
158.901
147.758
137.581
128.301
119.846
112.141
105.115
98.7026
92.8432
87.4809
82.5657
78.0525
73.9003
70.0735
66.5425
63.2953
60.5083
345.028
333.63
320.598
306.157
290.634
274.36
257.684
240.973
224.58
208.801
193.849
179.855
166.875
154.906
143.928
133.892
124.734
116.385
108.777
101.839
95.5092
89.7283
84.4412
79.599
75.1573
71.0753
67.3178
63.8538
60.6639
57.8365
344.829
332.275
317.524
301.294
284.285
266.993
249.768
232.888
216.589
201.061
186.439
172.805
160.179
148.551
137.891
128.149
119.261
111.159
103.778
97.0514
90.9169
85.3176
80.2003
75.5173
71.2255
67.2851
63.6619
60.3235
57.2525
54.4026
344.624
330.224
312.72
293.82
274.739
256.096
238.168
221.081
204.922
189.75
175.606
162.5
150.417
139.324
129.176
119.914
111.473
103.787
96.79
90.4178
84.6116
79.3164
74.481
70.0599
66.012
62.2985
58.8887
55.7448
52.8754
50.0304
344.384
326.516
304.202
281.274
259.484
239.321
220.78
203.704
187.964
173.451
160.094
147.828
136.592
126.324
116.96
108.434
100.679
93.6282
87.2177
81.3871
76.0802
71.2457
66.8358
62.8075
59.1236
55.7456
52.652
49.7855
47.2336
44.4418
343.95
318.035
286.671
257.965
233.213
211.983
193.512
177.198
162.607
149.432
137.488
126.633
116.764
107.794
99.6469
92.251
85.5398
79.4504
73.9241
68.9057
64.3449
60.1958
56.4158
52.9669
49.8178
46.9282
44.3006
41.8194
39.7533
37.1144
341.901
291.49
243.643
208.952
183.184
163.306
147.16
133.584
121.841
111.474
102.219
93.8979
86.3915
79.6071
73.4648
67.9055
62.8745
58.3213
54.1985
50.4628
47.0738
43.9967
41.1972
38.646
36.324
34.1791
32.2791
30.3603
29.0331
26.7948
317.059
174.82
117.992
90.8571
75.2177
65.0087
57.557
51.6943
46.8356
42.6621
38.9999
35.7449
32.8304
30.2126
27.8582
25.7332
23.8127
22.0757
20.5038
19.0796
17.7896
16.6154
15.5551
14.574
13.711
12.8606
12.1964
11.3838
10.9877
10.0022
346.558
339.351
331.204
320.563
305.806
289.545
264.095
237.979
217.931
200.38
185.148
171.858
160.145
149.723
140.379
131.953
124.317
117.374
111.052
105.182
99.8041
94.8409
90.2411
85.9665
81.9841
78.2656
74.7884
71.5396
68.5479
66.1176
346.476
339.083
330.754
320.061
305.592
290.15
265.919
240.491
220.546
202.874
187.413
173.855
161.874
151.201
141.629
133
125.185
118.084
111.623
105.635
100.158
95.1095
90.4381
86.1032
82.0701
78.3093
74.7971
71.519
68.5028
66.0521
346.328
338.595
329.923
319.179
304.963
286.58
265.586
244.369
224.656
206.909
191.157
177.21
164.811
153.73
143.779
134.805
126.682
119.307
112.605
106.411
100.757
95.5578
90.7584
86.315
82.1907
78.3535
74.7778
71.4469
68.3859
65.897
346.136
337.968
328.86
317.933
304.152
287.044
267.725
247.834
228.77
211.189
195.276
180.985
168.167
156.65
146.276
136.906
128.422
120.723
113.73
107.286
101.416
96.0304
91.0712
86.4918
82.2528
78.3196
74.6638
71.266
68.1477
65.6073
345.926
337.279
327.685
316.488
302.987
286.847
268.902
250.239
231.952
214.712
198.812
184.319
171.183
159.299
148.547
138.812
129.985
121.971
114.693
108.001
101.913
96.3375
91.2144
86.4953
82.1382
78.1058
74.3672
70.9004
67.7216
65.1221
345.715
336.573
326.462
314.907
301.457
285.969
268.969
251.269
233.702
216.87
201.111
186.565
173.251
161.12
150.093
140.076
130.977
122.706
115.184
108.303
102.026
96.2849
91.0187
86.1776
81.7175
77.599
73.789
70.2629
67.0305
64.3694
345.512
335.862
325.187
313.166
299.551
284.333
267.896
250.851
233.849
217.405
201.852
187.365
174.002
161.754
150.57
140.38
131.103
122.66
114.972
107.954
101.546
95.6874
90.3199
85.3927
80.8607
76.6833
72.8257
69.261
65.9914
63.2712
345.32
335.128
323.797
311.152
297.129
281.835
265.604
248.923
232.305
216.182
200.855
186.5
173.196
160.947
149.723
139.472
130.124
121.605
113.841
106.757
100.289
94.377
88.9643
84.0005
79.4403
75.2425
71.3717
67.7989
64.5176
61.7443
345.136
334.322
322.163
308.657
293.94
278.242
261.901
245.324
228.923
213.046
197.946
183.78
170.622
158.481
147.334
137.137
127.828
119.338
111.596
104.533
98.0858
92.194
86.8027
81.8621
77.3275
73.1577
69.317
65.7751
62.5168
59.6996
344.957
333.354
320.057
305.332
289.564
273.135
256.406
239.725
223.412
207.73
192.872
178.958
166.04
154.116
143.166
133.147
123.996
115.648
108.036
101.093
94.7568
88.969
83.6755
78.8278
74.3819
70.2973
66.5387
63.0749
59.8849
57.0364
344.776
332.052
317.064
300.558
283.285
265.79
248.445
231.523
215.241
199.766
185.211
171.647
159.087
147.517
136.907
127.205
118.349
110.274
102.913
96.2032
90.0825
84.495
79.388
74.7143
70.4313
66.4994
62.8849
59.555
56.493
53.6304
344.584
330.047
312.329
293.161
273.808
254.934
236.846
219.673
203.49
188.341
174.245
161.201
149.185
138.158
128.072
118.865
110.473
102.83
95.8695
89.5295
83.7513
78.4806
73.667
69.2654
65.2352
61.5379
58.1434
55.0133
52.1597
49.3097
344.358
326.38
303.875
280.692
258.631
238.229
219.508
202.324
186.538
172.029
158.709
146.499
135.33
125.132
115.837
107.375
99.6784
92.6798
86.3158
80.5262
75.2556
70.453
66.0712
62.0681
58.4067
55.049
51.9742
49.1237
46.5915
43.8013
343.935
317.941
286.409
257.471
232.466
211.006
192.36
175.935
161.291
148.114
136.201
125.4
115.596
106.696
98.6183
91.2884
84.638
78.6036
73.1262
68.1511
63.6283
59.5127
55.7621
52.3391
49.213
46.3436
43.7352
41.2686
39.2225
36.5901
341.896
291.435
243.453
208.577
182.604
162.542
146.253
132.587
120.802
110.435
101.208
92.9346
85.4849
78.7626
72.682
67.1811
62.2035
57.698
53.6172
49.9182
46.5611
43.5116
40.7361
38.2055
35.902
33.7721
31.888
29.9787
28.6669
26.4369
317.059
174.801
117.913
90.7061
74.9869
64.707
57.1995
51.3018
46.4276
42.2556
38.6068
35.373
32.4837
29.8913
27.562
25.461
23.5626
21.8455
20.2912
18.8822
17.6054
16.4425
15.3921
14.4191
13.5637
12.7189
12.0605
11.253
10.8607
9.87805
346.125
337.881
328.625
317.461
303.477
286.057
266.519
246.194
227.027
209.454
193.588
179.36
166.614
155.177
144.888
135.606
127.21
119.596
112.675
106.338
100.54
95.2199
90.3216
85.7988
81.6121
77.7269
74.1147
70.7561
67.6691
65.1396
346.069
337.7
328.326
317.115
303.233
286.165
267.081
247.166
228.211
210.703
194.808
180.496
167.64
156.083
145.674
136.277
127.774
120.063
113.053
106.638
100.773
95.3929
90.4432
85.8764
81.6522
77.7352
74.0962
70.715
67.6087
65.0623
345.965
337.366
327.769
316.468
302.718
286.216
267.78
248.657
230.102
212.75
196.843
182.414
169.386
157.632
147.021
137.427
128.739
120.857
113.693
107.14
101.153
95.6673
90.6257
85.9798
81.6881
77.7139
74.0267
70.605
67.4636
64.8855
345.828
336.922
327.024
315.563
301.962
286.034
268.392
250.057
232.024
214.928
199.075
184.561
171.363
159.396
148.557
138.735
129.828
121.741
114.389
107.669
101.532
95.9154
90.7597
86.0155
81.6397
77.594
73.8466
70.3741
67.1883
64.5676
345.673
336.411
326.152
314.456
300.92
285.442
268.504
250.891
233.405
216.63
200.903
186.368
173.051
160.909
149.867
139.834
130.72
122.434
114.898
108.011
101.726
95.978
90.7071
85.8633
81.4022
77.2844
73.4763
69.9527
66.7213
64.0517
345.512
335.862
325.187
313.165
299.551
284.333
267.896
250.85
233.848
217.403
201.849
187.362
173.999
161.75
150.566
140.376
131.1
122.658
114.97
107.951
101.544
95.6856
90.3183
85.3913
80.8595
76.6821
72.8247
69.2601
65.9906
63.2705
345.351
335.279
324.118
311.653
297.785
282.592
266.41
249.736
233.101
216.949
201.588
187.201
173.867
161.592
150.345
140.072
130.704
122.166
114.385
107.284
100.8
94.8723
89.4445
84.466
79.8914
75.6797
71.7952
68.2095
64.918
62.1497
345.192
334.647
322.886
309.815
295.478
280.055
263.876
247.365
230.962
215.04
199.872
185.627
172.389
160.169
148.946
138.677
129.3
120.746
112.944
105.824
99.323
93.3807
87.9415
82.9557
78.378
74.1674
70.2879
66.7096
63.4207
60.6103
345.036
333.922
321.374
307.454
292.383
276.459
260.035
243.491
227.19
211.439
196.461
182.4
169.325
157.244
146.138
135.968
126.676
118.194
110.457
103.395
96.9482
91.0567
85.6661
80.7274
76.1961
72.0313
68.1972
64.6632
61.4103
58.5667
344.877
333.018
319.367
304.235
288.088
271.369
254.468
237.726
221.432
205.818
191.049
177.228
164.398
152.553
141.671
131.709
122.606
114.299
106.722
99.8088
93.4987
87.7347
82.4631
77.6361
73.21
69.1447
65.4052
61.96
58.7869
55.9223
344.713
331.771
316.455
299.552
281.884
264.058
246.484
229.438
213.12
197.669
183.178
169.696
157.225
145.744
135.219
125.594
116.809
108.797
101.493
94.8337
88.7586
83.2124
78.1431
73.504
69.2532
65.3513
61.7652
58.4618
55.4261
52.5575
344.537
329.815
311.795
292.242
272.487
253.261
234.91
217.575
201.321
186.168
172.116
159.145
147.218
136.287
126.295
117.18
108.873
101.307
94.4183
88.1429
82.4232
77.2055
72.4401
68.0824
64.0925
60.4322
57.0722
53.9732
51.1529
48.3064
344.324
326.198
303.418
279.868
257.414
236.657
217.663
200.3
184.423
169.895
156.607
144.465
133.384
123.283
114.087
105.723
98.1185
91.2056
84.9203
79.2023
73.9966
69.2527
64.9242
60.9692
57.3517
54.0338
50.9961
48.1777
45.6822
42.9038
343.915
317.811
286.04
256.769
231.402
209.613
190.707
174.109
159.372
146.172
134.286
123.547
113.826
105.02
97.0396
89.8052
83.2457
77.2958
71.896
66.9915
62.5324
58.4741
54.7751
51.3985
48.3146
45.4826
42.9098
40.4717
38.4609
35.8468
341.889
291.36
243.191
208.057
181.8
161.476
144.98
131.175
119.315
108.931
99.7279
91.5067
84.1262
77.4828
71.4843
66.0639
61.1624
56.7273
52.7105
49.0691
45.7635
42.7599
40.0254
37.5311
35.2608
33.1589
31.3036
29.4141
28.1285
25.9192
317.058
174.778
117.815
90.5132
74.6864
64.3075
56.7194
50.7667
45.8623
41.6827
38.0434
34.8307
31.9698
29.4082
27.1109
25.0417
23.1735
21.4845
19.9558
18.5698
17.3137
16.1689
15.1349
14.1758
13.3338
12.4996
11.8519
11.0535
10.6678
9.69601
345.765
336.619
326.378
314.529
300.605
284.444
266.677
248.221
230.149
213.06
197.237
182.762
169.608
157.693
146.909
137.148
128.304
120.281
112.989
106.34
100.267
94.7097
89.6107
84.921
80.5974
76.6017
72.9017
69.473
66.322
63.7024
345.726
336.495
326.172
314.281
300.395
284.385
266.832
248.598
230.684
213.681
197.886
183.398
170.204
158.233
147.387
137.562
128.655
120.571
113.223
106.523
100.404
94.8059
89.671
84.95
80.5993
76.5804
72.8604
69.4149
66.2491
63.6157
345.653
336.261
325.782
313.803
299.964
284.196
266.991
249.148
231.521
214.684
198.952
184.454
171.201
159.141
148.19
138.254
129.237
121.048
113.601
106.81
100.61
94.9396
89.7407
84.9639
80.5649
76.5044
72.7491
69.2733
66.0811
63.4219
345.556
335.941
325.24
313.116
299.301
283.782
266.98
249.578
232.302
215.689
200.063
185.579
172.274
160.12
149.052
138.989
129.843
121.528
113.963
107.063
100.764
95.0047
89.7276
84.8822
80.4239
76.3124
72.5137
69.0011
65.776
63.0823
345.442
335.559
324.575
312.235
298.374
283.032
266.579
249.586
232.665
216.302
200.815
186.379
173.054
160.83
149.663
139.487
130.222
121.789
114.111
107.106
100.711
94.8657
89.5121
84.5997
80.0834
75.9224
72.0819
68.5341
65.2768
62.5437
345.32
335.127
323.797
311.151
297.128
281.834
265.603
248.921
232.302
216.179
200.85
186.495
173.19
160.941
149.718
139.467
130.119
121.6
113.837
106.753
100.286
94.3739
88.9615
83.9979
79.438
75.2405
71.3699
67.7973
64.5161
61.7429
345.192
334.647
322.886
309.814
295.477
280.054
263.875
247.364
230.961
215.039
199.87
185.625
172.387
160.166
148.943
138.675
129.298
120.744
112.942
105.823
99.3215
93.3792
87.9402
82.9545
78.377
74.1664
70.287
66.7088
63.42
60.6096
345.062
334.1
321.785
308.119
293.271
277.512
261.19
244.693
228.4
212.628
197.613
183.506
170.381
158.251
147.096
136.879
127.541
119.018
111.24
104.142
97.6595
91.7351
86.3136
81.3459
76.7874
72.5969
68.7387
65.1822
61.9097
59.0684
344.928
333.445
320.381
305.876
290.263
273.929
257.26
240.623
224.34
208.672
193.811
179.874
166.92
154.95
143.943
133.859
124.642
116.227
108.548
101.54
95.1412
89.2942
83.9451
79.0457
74.5519
70.4234
66.6246
63.1246
59.9009
57.0379
344.788
332.601
318.463
302.755
286.045
268.865
251.65
234.738
218.393
202.813
188.129
174.42
161.712
149.991
139.228
129.376
120.376
112.162
104.67
97.8345
91.5956
85.8969
80.6857
75.9147
71.541
67.5249
63.8319
60.4306
57.2982
54.4258
344.64
331.408
315.632
298.161
279.916
261.597
243.662
226.396
209.98
194.527
180.098
166.716
154.366
143.018
132.625
123.128
114.464
106.564
99.3648
92.801
86.8139
81.3485
76.3535
71.783
67.5955
63.7525
60.2212
56.9686
53.9831
51.1185
344.478
329.505
311.053
290.943
270.609
250.874
232.136
214.552
198.173
182.994
168.988
156.108
144.302
133.508
123.657
114.679
106.505
99.065
92.2923
86.1243
80.5034
75.3764
70.6942
66.4127
62.493
58.8972
55.5972
52.5524
49.789
46.958
344.281
325.945
302.766
278.682
255.665
234.405
215.022
197.403
181.388
166.823
153.571
141.516
130.553
120.588
111.535
103.312
95.8449
89.0617
82.8973
77.291
72.1879
67.538
63.2954
59.4189
55.8733
52.6209
49.6444
46.8792
44.443
41.6908
343.889
317.627
285.502
255.749
229.868
207.617
188.35
171.512
156.641