/*--------------------------------*- C++ -*----------------------------------*\
  =========                 |
  \\      /  F ield         | OpenFOAM: The Open Source CFD Toolbox
   \\    /   O peration     | Website:  https://openfoam.org
    \\  /    A nd           | Version:  10
     \\/     M anipulation  |
\*---------------------------------------------------------------------------*/
FoamFile
{
    format      ascii;
    class       volScalarField;
    location    "700";
    object      nut;
}
// * * * * * * * * * * * * * * * * * * * * * * * * * * * * * * * * * * * * * //

dimensions      [0 2 -1 0 0 0 0];

internalField   nonuniform List<scalar> 
27507
(
624.521
315.435
131.588
40.005
8.08502
15.177
22.8462
31.8
41.4539
51.0916
60.1622
68.3303
75.4467
82.3459
88.7828
92.132
94.7142
96.6651
98.0677
99.0004
99.536
99.7412
99.6875
99.4992
99.8803
625.906
381.038
159.384
53.5395
7.36632
16.1842
25.9225
35.9772
45.8925
55.2975
63.9052
71.5392
78.1265
84.9001
91.3185
94.1852
96.3824
97.9972
99.1108
99.7981
100.127
100.158
99.9589
99.6484
99.9304
627.517
511.053
230.961
87.1202
0.225839
10.9096
23.7083
36.0106
47.0813
56.8645
65.4316
72.8563
79.2072
84.5512
90.3637
95.9296
97.9394
99.3972
100.379
100.954
101.187
101.134
100.845
100.376
99.8385
99.9354
630.019
542.276
345.634
166.946
57.8929
0.400618
0.418533
15.1449
29.661
43.1064
54.9138
64.8712
73.1041
79.8603
85.3833
89.8718
93.4814
97.6971
101.766
102.643
103.128
103.28
103.153
102.793
102.24
101.53
100.707
99.8688
99.7185
633.12
555.859
448.721
308.793
172.965
72.1431
40.139
52.0254
61.0624
70.2442
78.5796
85.6709
91.4104
95.8858
99.2815
101.796
103.604
104.849
105.644
107.75
107.382
106.8
106.045
105.149
104.138
103.034
101.861
100.647
99.4731
99.042
635.76
567.769
480.151
374.797
273.077
182.698
135.167
133.967
127.738
124.922
123.49
122.594
121.797
120.905
119.856
118.652
117.319
115.898
114.455
112.852
111.246
109.623
107.986
106.345
104.706
103.072
101.449
99.8552
98.3481
97.6323
637.08
574.519
499.294
415.324
333.273
266.298
219.992
189.532
172.152
160.472
152.151
145.792
140.554
136.033
132
128.325
124.931
121.768
118.819
116.013
113.362
110.852
108.464
106.185
104.004
101.912
99.9029
97.9819
96.1814
95.2036
636.4
573.989
504.298
432.353
363.94
305.379
260.005
226.52
202.937
185.668
172.436
161.734
153.071
145.729
139.374
133.78
128.791
124.302
120.231
116.498
113.06
109.879
106.923
104.165
101.58
99.1496
96.8564
94.6982
92.6739
91.4791
632.898
564.096
493.707
427.285
367.576
316.472
274.866
242.039
216.708
196.948
181.268
168.433
157.599
148.576
140.819
134.055
128.087
122.774
118.008
113.699
109.78
106.198
102.907
99.8701
97.0557
94.4377
91.9914
89.7127
87.5577
86.2074
625.106
541.627
465.381
400.926
347.318
302.941
266.542
236.962
213.092
193.728
177.88
164.778
153.435
143.862
135.684
128.544
122.256
116.675
111.688
107.202
103.143
99.4538
96.0826
92.9894
90.1384
87.5024
85.05
82.7849
80.6087
79.1767
609.946
501.353
416.384
353.477
305.982
268.806
238.829
214.262
193.971
177.061
162.92
150.971
140.506
131.584
123.875
117.112
111.139
105.828
101.079
96.8089
92.95
89.4466
86.2508
83.3253
80.6336
78.154
75.8458
73.736
71.6588
70.2263
580.264
435.356
344.323
286.764
247.614
218.86
196.281
177.835
162.417
149.259
138.089
128.263
119.763
112.347
105.83
100.067
94.9432
90.3648
86.2549
82.5491
79.1932
76.1428
73.357
70.8073
68.4575
66.3005
64.2779
62.4614
60.6087
59.2608
518.334
334.9
250.713
206.061
178.507
159.407
144.627
132.596
122.458
113.49
105.722
98.8499
92.7457
87.3159
82.471
78.1344
74.2409
70.7344
67.5663
64.695
62.0831
59.7016
57.518
55.519
53.6644
51.9743
50.3588
48.9535
47.4542
46.2768
383.652
202.105
147.166
122.175
107.616
97.9425
90.1876
83.9212
78.4827
73.5799
69.163
65.1619
61.5337
58.2373
55.2396
52.5146
50.0372
47.7833
45.7295
43.8551
42.1384
40.5669
39.1146
37.7875
36.5365
35.4174
34.305
33.3795
32.3699
31.4412
151.873
75.0679
58.1213
50.5018
45.8623
42.7677
40.2081
37.984
35.9741
34.1121
32.3806
30.7694
29.2785
27.8857
26.5852
25.382
24.2735
23.2544
22.317
21.4549
20.6583
19.9261
19.2406
18.618
18.0148
17.4894
16.948
16.48
16.0901
15.4561
12.4958
9.27997
7.62842
6.70065
6.10474
5.683
5.35396
5.07869
4.83703
4.61778
4.41519
4.22618
4.04903
3.88313
3.72756
3.58144
3.44422
3.31547
3.19472
3.08149
2.97541
2.87569
2.7827
2.69403
2.61356
2.53192
2.46678
2.38197
2.35015
2.22882
625.896
381.186
159.542
54.1458
7.03193
15.9717
25.8053
35.9115
45.8534
55.2733
63.8894
71.5285
78.1192
84.8943
91.3124
94.1804
96.3787
97.9943
99.1084
99.7961
100.125
100.157
99.9577
99.6474
99.9296
626.945
443.744
188.725
64.8689
7.90561
18.4518
29.5253
40.2072
50.1925
59.3183
67.4743
74.6034
80.6949
87.3345
93.7365
96.1534
97.9691
99.2582
100.095
100.548
100.68
100.546
100.207
99.7799
99.9669
628.518
536.557
261.326
104.699
1.99107
1.08589
14.4701
28.0097
40.4626
51.4338
60.9405
69.11
76.0816
81.9696
86.8736
92.5608
98.1086
99.7091
100.82
101.506
101.831
101.852
101.62
101.18
100.585
99.9397
99.9487
631.006
546.532
398.057
190.048
79.3492
1.74065
2.51571
21.0463
35.4313
48.4099
59.6715
69.0978
76.8273
83.1053
88.1773
92.2477
95.4776
99.5867
103.614
104.145
104.333
104.233
103.891
103.348
102.639
101.798
100.864
99.9308
99.7021
633.928
559.41
458.633
335.585
193.29
89.5629
53.0358
63.6776
69.9518
77.5673
84.715
90.8401
95.7826
99.5926
102.424
104.452
105.837
106.716
107.19
109.241
108.594
107.77
106.808
105.734
104.571
103.339
102.056
100.748
99.4926
98.9938
636.326
570.172
485.974
385.98
287.682
196.989
147.971
146.061
137.094
132.46
129.659
127.7
126.047
124.455
122.825
121.134
119.39
117.616
115.868
114.006
112.177
110.364
108.564
106.782
105.022
103.284
101.572
99.9013
98.3275
97.5549
637.435
575.984
502.609
421.351
341.724
276.127
229.492
197.948
179.023
166.244
156.789
149.64
143.752
138.696
134.221
130.176
126.469
123.04
119.863
116.862
114.044
111.389
108.876
106.489
104.214
102.042
99.9627
97.9814
96.1277
95.1035
636.598
574.793
506.053
435.45
368.398
310.722
265.485
231.677
207.424
189.476
175.677
164.41
155.31
147.601
140.939
135.086
129.877
125.199
120.964
117.09
113.53
110.244
107.196
104.358
101.704
99.2126
96.8667
94.6627
92.5973
91.3654
632.993
564.474
494.526
428.732
369.69
319.106
277.721
244.873
219.314
199.253
183.257
170.165
159.053
149.801
141.85
134.918
128.805
123.366
118.49
114.085
110.083
106.427
103.072
99.9783
97.1142
94.4525
91.9678
89.6554
87.4697
86.0905
625.138
541.753
465.662
401.45
348.155
304.06
267.842
238.331
214.422
194.96
178.985
165.753
154.297
144.592
136.306
129.07
122.695
117.037
111.981
107.435
103.322
99.5843
96.1702
93.0387
90.1536
87.4874
85.008
82.719
80.5208
79.0666
609.946
501.352
416.402
353.559
306.176
269.131
239.27
214.784
194.527
177.615
163.444
151.457
140.948
131.971
124.212
117.402
111.382
106.03
101.242
96.9363
93.0448
89.5117
86.2889
83.3388
80.6249
78.1252
75.7988
73.6728
71.5804
70.1312
580.252
435.31
344.248
286.684
247.557
218.852
196.331
177.944
162.567
149.438
138.28
128.455
119.951
112.522
105.988
100.206
95.0622
90.4641
86.3349
82.6105
79.2368
76.1695
73.3679
70.8035
68.44
66.2703
64.236
62.409
60.5463
59.1864
518.322
334.855
250.635
205.96
178.397
159.307
144.55
132.554
122.439
113.498
105.756
98.8964
92.8005
87.3737
82.528
78.188
74.2889
70.7755
67.5997
64.7201
62.0997
59.7097
57.5176
55.5105
53.648
51.9507
50.328
48.9164
47.4108
46.2258
383.646
202.08
147.119
122.11
107.537
97.8611
90.1087
83.856
78.4317
73.5446
69.1433
65.1541
61.5347
58.2449
55.2514
52.5285
50.0515
47.7966
45.7407
43.8636
42.1436
40.5684
39.1122
37.7813
36.5263
35.4037
34.2871
33.3591
32.3441
31.4142
151.872
75.0614
58.1063
50.4792
45.8316
42.7331
40.1724
37.951
35.9455
34.0888
32.3629
30.757
29.2698
27.8815
26.5844
25.3835
24.2764
23.2579
22.3205
21.458
20.6605
19.9272
19.2404
18.6166
18.0118
17.4854
16.9417
16.4749
16.0766
15.4511
12.4958
9.27981
7.62778
6.69937
6.10276
5.68045
5.351
5.07557
4.83395
4.61489
4.41259
4.22393
4.04713
3.88153
3.72622
3.58034
3.44332
3.31471
3.19407
3.0809
2.97486
2.87514
2.78214
2.69342
2.6129
2.53122
2.46588
2.38148
2.34826
2.22912
627.503
511.163
231.329
88.921
0.216145
10.5593
23.4523
35.8195
46.9452
56.77
65.3662
72.8102
79.1743
84.5273
90.3447
95.9139
97.927
99.3872
100.371
100.948
101.182
101.129
100.841
100.373
99.8357
99.9331
628.512
536.545
261.595
104.982
1.14191
1.07202
14.5291
27.9282
40.3615
51.352
60.8806
69.0672
76.0509
81.9473
86.8573
92.5482
98.0988
99.7013
100.813
101.501
101.827
101.849
101.617
101.178
100.583
99.9379
99.9472
630.425
545.178
342.403
156.82
45.9624
12.3311
26.9804
40.5019
52.422
62.5721
71.0578
78.0884
83.8823
88.6243
92.4618
97.2755
102.024
102.884
103.359
103.502
103.366
102.997
102.436
101.717
100.887
100.042
99.8869
632.766
554.185
443.449
268.512
141.282
41.4684
18.6388
25.6419
38.7472
51.1585
62.2717
71.8132
79.6949
86.0339
91.0482
94.969
97.9976
100.296
103.634
106.929
106.829
106.474
105.909
105.17
104.29
103.296
102.212
101.071
99.9617
99.5863
635.31
565.273
472.351
355.686
233.455
142.728
100.552
89.78
90.3481
94.1887
98.4785
102.337
105.435
107.721
109.272
110.211
110.661
110.731
110.505
111.912
110.749
109.48
108.136
106.735
105.292
103.821
102.334
100.852
99.4466
98.8212
637.284
574.175
495.133
402.944
312.456
239.017
193.295
168.437
155.025
146.382
141.105
137.155
133.888
130.977
128.257
125.655
123.141
120.713
118.399
116.056
113.818
111.653
109.551
107.51
105.526
103.596
101.72
99.9076
98.21
97.3311
638.027
578.428
508.064
431.183
356.013
291.92
244.879
212.839
191.577
176.679
165.314
156.695
149.596
143.548
138.252
133.52
129.232
125.312
121.713
118.352
115.225
112.304
109.56
106.973
104.526
102.205
99.9975
97.905
95.9529
94.8419
636.919
576.108
508.943
440.594
375.942
319.702
274.801
240.729
215.445
196.328
181.45
169.3
159.35
150.969
143.744
137.414
131.802
126.776
122.24
118.107
114.323
110.842
107.626
104.641
101.859
99.2573
96.8148
94.5266
92.3855
91.0843
633.132
565.048
495.816
431.08
373.215
323.542
282.597
249.792
223.89
203.324
186.772
173.237
161.644
151.958
143.662
136.426
130.05
124.381
119.305
114.725
110.57
106.78
103.307
100.111
97.1559
94.4146
91.8599
89.486
87.244
85.8108
625.17
541.894
466.031
402.219
349.46
305.87
269.996
240.638
216.692
197.076
180.886
167.434
155.785
145.847
137.369
129.959
123.43
117.634
112.455
107.798
103.588
99.7628
96.271
93.0703
90.1236
87.4026
84.8743
82.5422
80.3037
78.8083
609.926
501.288
416.339
353.585
306.384
269.568
239.922
215.594
195.413
178.512
164.298
152.252
141.673
132.606
124.76
117.865
111.767
106.34
101.484
97.1148
93.1654
89.5793
86.3084
83.3144
80.5607
78.025
75.6659
73.5108
71.3908
69.911
580.217
435.187
344.053
286.461
247.365
218.741
196.324
178.044
162.748
149.68
138.545
128.732
120.229
112.779
106.218
100.406
95.2297
90.5984
86.4362
82.6795
79.2749
76.1782
73.3488
70.7584
68.3706
66.1786
64.1233
62.2777
60.3969
59.0155
518.294
334.754
250.464
205.736
178.149
159.071
144.351
132.416
122.344
113.456
105.765
98.9308
92.8537
87.4357
82.5917
78.2479
74.3411
70.8172
67.6288
64.7355
62.1007
59.6962
57.4896
55.4684
53.5922
51.8821
50.2465
48.8245
47.3063
46.1099
383.634
202.03
147.026
121.976
107.374
97.6891
89.9376
83.7073
78.308
73.4497
69.0776
65.1114
61.5098
58.2335
55.2492
52.5316
50.0566
47.801
45.7424
43.8611
42.1357
40.5546
39.0919
37.7544
36.4926
35.3637
34.2396
33.3088
32.278
31.3573
151.871
75.0492
58.0779
50.4354
45.7714
42.6639
40.0998
37.8817
35.8834
34.0359
32.3202
30.7237
29.2438
27.8638
26.5732
25.3769
24.2729
23.256
22.3189
21.4559
20.6572
19.9223
19.2335
18.6075
18.0002
17.4719
16.9238
16.4635
16.0216
15.4667
12.4958
9.27956
7.62663
6.69702
6.09904
5.67555
5.34521
5.06932
4.82763
4.60882
4.40699
4.2189
4.04272
3.87764
3.72284
3.5774
3.44075
3.31243
3.19202
3.079
2.97305
2.87337
2.78035
2.69161
2.61092
2.52953
2.46246
2.38449
2.32486
2.24753
629.999
542.15
347.737
166.338
55.8282
0.178898
14.9826
29.4733
42.8952
54.7146
64.705
72.9746
79.7624
85.3099
89.8166
93.4394
97.6643
101.74
102.622
103.111
103.266
103.141
102.783
102.232
101.523
100.701
99.8638
99.7142
630.99
546.443
398.813
191.406
79.4835
1.72224
1.74935
20.9705
35.3161
48.2655
59.5228
68.9686
76.7244
83.0264
88.1174
92.2022
95.4427
99.5601
103.594
104.128
104.319
104.221
103.881
103.34
102.633
101.793
100.859
99.9268
99.6986
632.758
554.15
443.381
268.692
141.463
40.944
18.592
25.5371
38.6344
51.0738
62.1979
71.7422
79.632
85.9823
91.0076
94.9375
97.9732
100.277
103.62
106.918
106.82
106.467
105.903
105.165
104.286
103.292
102.209
101.069
99.9595
99.5843
634.871
563.198
466.464
343.417
213.312
122.249
70.0549
63.7668
69.3338
76.8276
84.0686
90.3693
95.5077
99.5018
102.487
104.637
106.113
107.054
109.076
111.057
110.134
109.069
107.896
106.638
105.316
103.945
102.542
101.131
99.7873
99.2156
636.928
572.156
488.873
389.018
290.893
197.044
148.657
127.757
120.297
118.396
118.327
118.736
119.06
119.079
118.752
118.114
117.227
116.155
114.946
115.206
113.366
111.514
109.668
107.838
106.028
104.244
102.49
100.78
99.1753
98.3801
638.373
578.767
505.762
422.941
341.055
272.982
225.455
195.754
177.344
164.96
156.121
149.511
144.085
139.403
135.222
131.402
127.866
124.571
121.51
118.537
115.763
113.137
110.64
108.259
105.983
103.802
101.71
99.7121
97.8512
96.83
638.666
581.119
514.207
442.449
372.544
311.845
264.94
231.178
207.251
189.78
176.386
165.699
157.048
149.705
143.33
137.694
132.645
128.081
123.931
120.099
116.569
113.298
110.254
107.408
104.737
102.221
99.8469
97.6101
95.5286
94.3015
637.227
577.431
512.009
446.27
384.498
330.377
286.167
251.689
225.261
204.794
188.618
175.427
164.375
155.136
147.186
140.244
134.106
128.628
123.703
119.234
115.161
111.43
107.996
104.822
101.875
99.1299
96.5629
94.1664
91.9265
90.533
633.222
565.483
496.968
433.422
376.986
328.515
288.228
255.534
229.299
208.18
191.002
176.874
164.777
154.526
145.793
138.174
131.463
125.503
120.172
115.37
111.019
107.059
103.437
100.108
97.0381
94.1953
91.5514
89.0996
86.785
85.2799
625.14
541.838
466.123
402.718
350.573
307.631
272.235
243.122
219.192
199.439
183.026
169.315
157.454
147.243
138.532
130.911
124.191
118.224
112.892
108.099
103.767
99.833
96.2441
92.9569
89.9331
87.1435
84.554
82.168
79.8783
78.3283
609.847
501.033
415.99
353.282
306.27
269.732
240.366
216.262
196.212
179.362
165.126
153.024
142.382
133.222
125.278
118.287
112.097
106.582
101.645
97.2001
93.1809
89.5308
86.2012
83.1538
80.3513
77.7715
75.3722
73.1815
71.0272
69.5068
580.138
434.922
343.639
285.967
246.877
218.339
196.052
177.917
162.735
149.764
138.672
128.893
120.409
112.947
106.364
100.522
95.3127
90.6458
86.4472
82.6543
79.2141
76.0833
73.2213
70.6002
68.1835
65.9647
63.8842
62.0163
60.1139
58.7034
518.241
334.575
250.165
205.343
177.702
158.623
143.94
132.082
122.065
113.254
105.634
98.8414
92.7983
87.4007
82.5669
78.2253
74.3147
70.7824
67.5824
64.6753
62.0253
59.6049
57.3821
55.3447
53.4527
51.7275
50.0772
48.6417
47.1114
45.8955
383.614
201.95
146.878
121.765
107.11
97.4032
89.6447
83.4378
78.0686
73.2486
68.9159
64.9826
61.4079
58.1532
55.1848
52.4777
50.0086
47.7552
45.6957
43.8112
42.081
40.4938
39.0242
37.6795
36.4099
35.2736
34.1419
33.2035
32.1675
31.2351
151.869
75.0314
58.0359
50.3701
45.6802
42.5566
39.9842
37.7677
35.7766
33.9405
32.2377
30.654
29.1843
27.816
26.535
25.346
24.2469
23.2331
22.2975
21.4347
20.6352
19.8989
19.208
18.5797
17.9697
17.4387
16.888
16.4239
15.9819
15.421
12.4958
9.27921
7.62499
6.69362
6.09358
5.6682
5.33637
5.05956
4.81751
4.59881
4.39743
4.21001
4.03458
3.87019
3.71606
3.57124
3.43513
3.30726
3.18719
3.07443
2.96867
2.86909
2.77613
2.68735
2.60668
2.52507
2.45821
2.37943
2.32074
2.242
633.118
555.918
449.497
320.717
172.016
70.5271
39.0937
51.4025
60.6995
69.9744
78.3438
85.4643
91.2358
95.7434
99.168
101.707
103.533
104.794
105.6
107.715
107.354
106.777
106.026
105.133
104.124
103.023
101.851
100.639
99.4658
99.0357
633.916
559.342
458.23
334.76
193.165
88.8555
52.6924
62.8923
69.6094
77.3271
84.514
90.6658
95.635
99.4715
102.326
104.375
105.777
106.667
107.152
109.212
108.569
107.75
106.791
105.72
104.559
103.329
102.047
100.741
99.4863
98.9883
635.3
565.223
472.195
355.496
233.377
142.522
100.362
89.5133
90.123
94.0167
98.3398
102.22
105.336
107.639
109.206
110.158
110.618
110.697
110.477
111.891
110.732
109.466
108.124
106.724
105.283
103.814
102.328
100.847
99.442
98.8171
636.923
572.135
488.818
388.942
290.827
196.962
148.539
127.637
120.195
118.314
118.261
118.682
119.015
119.041
118.721
118.089
117.206
116.138
114.933
115.196
113.358
111.507
109.662
107.832
106.024
104.24
102.487
100.777
99.1729
98.378
638.396
578.53
504.28
419.003
334.683
253.067
200.579
171.153
155.615
146.898
141.549
137.74
134.675
131.944
129.359
126.848
124.391
121.991
119.656
118.422
115.832
113.334
110.935
108.633
106.422
104.295
102.248
100.287
98.4614
97.4736
639.279
582.732
515.273
441.054
367.922
304.889
257.137
223.875
200.996
184.77
172.415
162.809
154.98
148.322
142.506
137.328
132.653
128.395
124.51
120.846
117.483
114.353
111.423
108.67
106.074
103.62
101.294
99.0948
97.0534
95.871
639.11
583.152
519.269
452.263
387.549
330.498
284.453
249.411
223.186
203.288
187.761
175.132
164.737
155.993
148.447
141.829
135.953
130.687
125.937
121.595
117.626
113.979
110.609
107.482
104.57
101.846
99.2925
96.9007
94.6778
93.3196
637.34
578.102
514.054
450.671
391.715
339.894
296.728
262.11
234.777
213.108
195.688
181.455
169.345
159.172
150.466
142.872
136.176
130.218
124.88
120.055
115.674
111.676
108.011
104.637
101.516
98.6195
95.9211
93.4106
91.0643
89.567
633.13
565.31
497.169
434.611
379.559
332.394
292.937
260.527
234.124
212.576
194.853
180.163
167.605
156.801
147.625
139.616
132.564
126.305
120.713
115.681
111.13
106.994
103.217
99.753
96.5637
93.6167
90.8811
88.3494
85.9583
84.373
624.951
541.261
465.415
402.246
350.649
308.379
273.561
244.808
221.01
201.221
184.662
170.743
158.711
148.262
139.335
131.514
124.612
118.481
113
108.073
103.621
99.5795
95.8946
92.5217
89.4214
86.5638
83.9136
81.4744
79.1324
77.5217
609.644
500.383
415.041
352.247
305.358
269.09
240.042
216.222
196.374
179.645
165.448
153.336
142.671
133.457
125.44
118.373
112.105
106.516
101.506
96.9933
92.9104
89.2012
85.8169
82.7193
79.8709
77.2495
74.8119
72.5877
70.3998
68.8345
579.977
434.404
342.843
284.996
245.853
217.373
195.218
177.251
162.218
149.389
138.371
128.667
120.232
112.788
106.206
100.355
95.1279
90.4384
86.214
82.3935
78.9249
75.7658
72.876
70.2282
67.7859
65.5432
63.44
61.5516
59.63
58.1866
518.147
334.272
249.674
204.698
176.955
157.842
143.182
131.403
121.448
112.74
105.198
98.4744
92.4863
87.1287
82.322
77.9972
74.095
70.5646
67.3617
64.448
61.7887
59.3572
57.1222
55.0722
53.1671
51.4292
49.7663
48.3181
46.7804
45.539
383.583
201.833
146.662
121.455
106.717
96.9644
89.1827
82.9909
77.6502
72.8746
68.587
64.6961
61.1581
57.9347
54.9914
52.3031
49.8471
47.602
45.5468
43.6636
41.9321
40.342
38.868
37.5181
36.2426
35.1001
33.963
33.0142
31.9863
31.0223
151.867
75.0079
57.9798
50.281
45.5537
42.404
39.8157
37.5953
35.6087
33.7835
32.0946
30.5255
29.0686
27.7148
26.4464
25.2676
24.1763
23.1678
22.2357
21.3748
20.576
19.8394
19.1474
18.5176
17.9057
17.3719
16.8217
16.3442
15.9461
15.304
12.4958
9.27877
7.62291
6.6892
6.08632
5.65823
5.32407
5.04564
4.80267
4.5837
4.38254
4.19567
4.02099
3.85735
3.704
3.55993
3.42451
3.29725
3.17769
3.06534
2.9599
2.86055
2.76778
2.67906
2.59857
2.51653
2.45131
2.36583
2.33363
2.21198
635.758
567.785
480.288
374.619
272.222
181.712
134.375
133.447
127.359
124.625
123.251
122.397
121.634
120.77
119.745
118.561
117.246
115.838
114.406
112.811
111.212
109.595
107.963
106.325
104.689
103.057
101.437
99.8446
98.3388
97.6241
636.317
570.127
485.795
385.255
287.168
196.369
147.414
145.706
136.769
132.202
129.452
127.53
125.906
124.337
122.729
121.055
119.325
117.563
115.825
113.969
112.148
110.339
108.543
106.764
105.006
103.271
101.561
99.8917
98.3191
97.5475
637.274
574.13
495.001
402.656
312.188
238.737
193.026
168.185
154.799
146.195
140.952
137.029
133.783
130.89
128.185
125.595
123.092
120.672
118.365
116.028
113.795
111.633
109.535
107.496
105.514
103.586
101.711
99.8998
98.2032
97.3251
638.367
578.74
505.693
422.817
340.923
272.833
225.3
195.607
177.213
164.847
156.028
149.434
144.02
139.349
135.177
131.365
127.835
124.544
121.488
118.519
115.747
113.124
110.629
108.25
105.975
103.795
101.703
99.7068
97.8465
96.8259
639.276
582.721
515.248
441.012
367.872
304.83
257.074
223.814
200.941
184.723
172.375
162.776
154.952
148.298
142.486
137.311
132.639
128.383
124.5
120.837
117.476
114.347
111.418
108.665
106.07
103.616
101.291
99.0922
97.0511
95.8689
639.645
584.764
521.221
453.626
387.801
329.731
283.102
247.953
221.893
202.288
187.066
174.7
164.588
156.059
148.688
142.214
136.454
131.28
126.605
122.313
118.388
114.778
111.439
108.335
105.44
102.729
100.184
97.797
95.5827
94.2385
639.07
583.5
521.432
457.999
397.644
344.071
299.502
264.064
236.367
214.617
197.247
183.107
171.107
161.083
152.463
144.94
138.298
132.382
127.073
122.263
117.89
113.894
110.225
106.841
103.707
100.793
98.0758
95.5435
93.188
91.6994
637.025
577.315
513.709
451.946
395.324
345.695
303.853
269.565
241.829
219.379
201.043
185.919
173.061
162.038
152.671
144.505
137.315
130.933
125.226
120.086
115.433
111.2
107.331
103.779
100.505
97.4753
94.6618
92.0525
89.6097
88.0102
632.668
563.907
495.424
433.34
379.389
333.485
295.018
263.145
236.868
215.169
197.139
182.063
169.196
157.981
148.448
140.129
132.8
126.296
120.488
115.267
110.55
106.267
102.362
98.7852
95.4971
92.4639
89.6527
87.0562
84.5988
82.9357
624.458
539.7
463.198
399.924
348.694
307.046
272.872
244.628
221.145
201.502
184.963
170.977
158.878
148.307
139.245
131.293
124.267
118.02
112.433
107.408
102.868
98.7466
94.9897
91.5521
88.3941
85.4852
82.789
80.3108
77.9266
76.2579
609.213
499.015
413.023
349.923
303.038
266.997
238.286
214.818
195.264
178.765
164.713
152.679
142.073
132.89
124.863
117.774
111.476
105.853
100.806
96.2564
92.1367
88.3917
84.9734
81.8439
78.9656
76.3169
73.8537
71.6081
69.396
67.7882
579.666
433.442
341.398
283.238
243.951
215.481
193.448
175.668
160.823
148.193
137.298
127.733
119.394
112.021
105.487
99.6656
94.456
89.7745
85.5509
81.7262
78.2498
75.0805
72.1789
69.5185
67.0632
64.808
62.6916
60.7925
58.8595
57.3854
517.979
333.763
248.876
203.663
175.751
156.557
141.893
130.187
120.297
111.715
104.272
97.6456
91.7407
86.4518
81.6993
77.4158
73.5442
70.0356
66.8472
63.9424
61.2876
58.8574
56.6209
54.5679
52.6582
50.9154
49.2466
47.7921
46.2527
44.9885
383.532
201.657
146.346
121.002
106.142
96.3097
88.4809
82.2881
76.9695
72.2398
68.0029
64.1641
60.674
57.4942
54.5882
51.9306
49.4988
47.2723
45.2307
43.357
41.6318
40.0454
38.5729
37.2233
35.9465
34.8021
33.6634
32.7086
31.6883
30.7038
151.864
74.9773
57.9059
50.1619
45.3822
42.193
39.5772
37.3444
35.3565
33.5395
31.8637
30.3103
28.8684
27.5317
26.2793
25.1142
24.0341
23.0344
22.1089
21.2528
20.4572
19.7227
19.0317
18.4024
17.7903
17.2555
16.7059
16.2232
15.8342
15.179
12.4958
9.27826
7.62036
6.68363
6.07697
5.64508
5.30751
5.02644
4.7817
4.5618
4.3604
4.17379
3.9997
3.83678
3.68426
3.54105
3.40648
3.28001
3.16117
3.04945
2.94454
2.84563
2.75324
2.66478
2.58457
2.50265
2.43758
2.35221
2.32052
2.19763
637.076
574.504
499.264
415.114
332.78
265.766
219.511
189.117
171.825
160.199
151.934
145.612
140.405
135.908
131.896
128.238
124.858
121.708
118.768
115.97
113.326
110.822
108.439
106.163
103.985
101.896
99.8887
97.9696
96.1705
95.194
637.427
575.948
502.501
421.037
341.348
275.726
229.124
197.621
178.743
166.006
156.597
149.481
143.619
138.584
134.128
130.098
126.404
122.985
119.817
116.823
114.011
111.362
108.853
106.469
104.197
102.027
99.9496
97.97
96.1177
95.0946
638.019
578.392
507.968
430.982
355.775
291.66
244.624
212.603
191.368
176.501
165.163
156.569
149.491
143.459
138.177
133.457
129.179
125.267
121.676
118.32
115.198
112.281
109.54
106.956
104.512
102.192
99.9865
97.8954
95.9444
94.8343
638.66
581.093
514.145
442.338
372.408
311.692
264.782
231.027
207.115
189.662
176.283
165.612
156.975
149.643
143.278
137.65
132.608
128.049
123.904
120.076
116.549
113.281
110.239
107.395
104.726
102.212
99.8386
97.6028
95.5222
94.2958
639.106
583.138
519.238
452.21
387.482
330.42
284.371
249.33
223.112
203.222
187.704
175.083
164.694
155.957
148.416
141.802
135.93
130.668
125.92
121.581
117.614
113.968
110.6
107.474
104.563
101.84
99.2871
96.896
94.6736
93.3158
639.069
583.495
521.421
457.981
397.62
344.043
299.472
264.034
236.339
214.592
197.225
183.087
171.089
161.068
152.45
144.929
138.289
132.374
127.066
122.257
117.884
113.889
110.221
106.837
103.704
100.791
98.0733
95.5413
93.1861
91.6976
638.191
580.978
518.844
457.368
400.24
349.785
307.153
272.263
244.121
221.412
202.913
187.679
174.746
163.678
154.263
146.06
138.839
132.427
126.692
121.524
116.843
112.583
108.687
105.108
101.809
98.7548
95.9174
93.2842
90.826
89.2231
635.967
574.044
509.419
448.208
393.271
345.628
305.361
271.946
244.457
221.839
203.115
187.502
174.254
162.703
152.885
144.343
136.822
130.151
124.192
118.836
113.995
109.6
105.59
101.918
98.5403
95.4231
92.5343
89.8622
87.3505
85.6639
631.565
560.406
490.462
428.136
374.898
330.168
292.856
261.855
236.11
214.665
196.696
181.554
168.617
157.253
147.537
139.071
131.6
124.966
119.039
113.713
108.902
104.537
100.56
96.9202
93.5776
90.4976
87.6459
85.0169
82.5184
80.7909
623.435
536.453
458.479
394.634
343.554
302.496
269.064
241.519
218.595
199.359
183.09
169.26
157.263
146.76
137.706
129.749
122.706
116.435
110.82
105.768
101.199
97.0518
93.2701
89.8099
86.6314
83.7049
80.9925
78.5031
76.0989
74.3838
608.376
496.411
409.228
345.524
298.51
262.673
234.351
211.336
192.212
176.092
162.34
150.509
140.098
131.071
123.137
116.117
109.87
104.282
99.2603
94.7271
90.618
86.8796
83.4647
80.3367
77.4585
74.8096
72.3447
70.1005
67.8829
66.2423
579.089
431.711
338.874
280.218
240.687
212.187
190.28
172.725
158.127
145.775
135.074
125.733
117.566
110.342
103.922
98.1926
93.0553
88.4306
84.2514
80.4612
77.0115
73.8627
70.9768
68.3287
65.8824
63.6348
61.5232
59.6304
57.7007
56.2036
517.679
332.896
247.57
202.008
173.846
154.52
139.828
128.191
118.376
109.946
102.635
96.1448
90.3627
85.1824
80.5222
76.3156
72.5074
69.0504
65.9037
63.0324
60.4042
57.9951
55.7752
53.7355
51.8357
50.1014
48.4384
46.9892
45.4581
44.1775
383.447
201.383
145.871
120.332
105.296
95.3416
87.4367
81.2233
75.9188
71.2367
67.0578
63.2832
59.856
56.7358
53.8836
51.2729
48.8811
46.6878
44.6735
42.822
41.1144
39.5424
38.0808
36.7403
35.4701
34.3314
33.1971
32.2431
31.2349
30.2365
151.858
74.9356
57.8054
49.9989
45.1463
41.8998
39.242
36.9854
34.9886
33.1757
31.5116
29.9748
28.5505
27.2337
26.0012
24.8543
23.7899
22.8036
21.889
21.042
20.2534
19.5248
18.8381
18.2126
17.603
17.0701
16.5233
16.0387
15.6566
14.997
12.4958
9.27765
7.61719
6.67652
6.06478
5.62763
5.28519
5.00016
4.7525
4.53078
4.32847
4.14167
3.96794
3.80565
3.65399
3.51177
3.37824
3.2528
3.13494
3.02412
2.92004
2.82185
2.73014
2.64221
2.56258
2.48097
2.41643
2.33121
2.30005
2.17703
636.394
573.965
504.239
432.197
363.656
305.046
259.678
226.223
202.684
185.455
172.254
161.583
152.943
145.62
139.282
133.702
128.725
124.246
120.183
116.457
113.025
109.849
106.897
104.142
101.561
99.1325
96.8414
94.6851
92.6623
91.4686
636.591
574.764
505.978
435.282
368.159
310.448
265.214
231.427
207.204
189.287
175.513
164.274
155.195
147.503
140.855
135.014
129.817
125.148
120.92
117.052
113.498
110.216
107.172
104.337
101.685
99.1966
96.8527
94.6504
92.5865
91.3556
636.912
576.079
508.877
440.466
375.772
319.506
274.602
240.539
215.274
196.177
181.32
169.187
159.255
150.888
143.674
137.355
131.751
126.732
122.203
118.075
114.295
110.818
107.605
104.623
101.844
99.2435
96.8027
94.5159
92.376
91.0758
637.221
577.409
511.962
446.187
384.389
330.25
286.035
251.56
225.142
204.687
188.524
175.345
164.305
155.075
147.134
140.199
134.067
128.595
123.674
119.209
115.139
111.411
107.98
104.807
101.863
99.1189
96.5532
94.1578
91.9189
90.5261
637.336
578.088
514.026
450.624
391.653
339.821
296.65
262.032
234.704
213.041
195.628
181.402
169.298
159.132
150.431
142.841
136.149
130.195
124.86
120.037
115.659
111.663
108
104.626
101.507
98.6117
95.9141
93.4044
91.0588
89.562
637.023
577.307
513.695
451.924
395.294
345.659
303.815
269.525
241.791
219.344
201.011
185.89
173.035
162.015
152.651
144.487
137.3
130.919
125.214
120.076
115.424
111.193
107.324
103.773
100.499
97.4705
94.6575
92.0486
89.6062
88.0071
635.967
574.041
509.414
448.2
393.261
345.615
305.347
271.932
244.443
221.826
203.103
187.491
174.244
162.694
152.877
144.336
136.816
130.145
124.187
118.831
113.991
109.597
105.587
101.915
98.5379
95.4209
92.5323
89.8605
87.349
85.6625
633.692
566.847
499.237
437.416
383.615
337.885
299.524
267.593
241.086
219.035
200.59
185.062
171.851
160.23
150.293
141.659
134.044
127.284
121.245
115.82
110.921
106.476
102.425
98.7195
95.3159
92.1793
89.276
86.5972
84.0614
82.3149
629.381
553.5
480.549
417.199
364.404
320.897
285.023
255.326
230.616
209.931
192.495
177.714
165.017
153.837
144.231
135.835
128.414
121.814
115.911
110.603
105.807
101.456
97.4894
93.8616
90.5306
87.4633
84.6238
82.0113
79.5115
77.7436
621.493
530.392
449.799
384.881
333.842
293.471
261.003
234.453
212.421
193.927
178.249
164.871
153.205
143.015
134.177
126.387
119.477
113.312
107.784
102.803
98.2949
94.1984
90.4609
87.0397
83.8958
81.0013
78.3168
75.8578
73.4678
71.7269
606.818
491.684
402.539
337.924
290.73
255.173
227.387
205.009
186.52
170.986
157.742
146.288
136.263
127.536
119.842
113.018
106.932
101.477
96.5661
92.1256
88.0949
84.4233
81.0658
77.9877
75.153
72.5435
70.1119
67.9025
65.7077
64.0511
578.02
428.618
334.542
275.197
235.37
206.861
185.142
167.9
153.654
141.69
131.291
122.293
114.406
107.425
101.213
95.6574
90.6668
86.1657
82.0908
78.3888
75.014
71.9292
69.098
66.4974
64.092
61.8813
59.8002
57.9385
56.0344
54.5271
517.126
331.378
245.391
199.349
170.866
151.377
136.655
125.109
115.397
107.165
100.036
93.738
88.134
83.1151
78.5978
74.5157
70.8149
67.45
64.3818
61.5775
59.0062
56.646
54.4677
52.4643
50.5952
48.8889
47.2486
45.8211
44.314
43.0262
383.294
200.927
145.116
119.302
104.027
93.9087
85.9003
79.6527
74.3602
69.7334
65.6263