/*--------------------------------*- C++ -*----------------------------------*\
  =========                 |
  \\      /  F ield         | OpenFOAM: The Open Source CFD Toolbox
   \\    /   O peration     | Website:  https://openfoam.org
    \\  /    A nd           | Version:  10
     \\/     M anipulation  |
\*---------------------------------------------------------------------------*/
FoamFile
{
    format      ascii;
    class       volScalarField;
    location    "700";
    object      p;
}
// * * * * * * * * * * * * * * * * * * * * * * * * * * * * * * * * * * * * * //

dimensions      [0 2 -2 0 0 0 0];

internalField   nonuniform List<scalar> 
27507
(
122.55
192.095
293.658
508.787
-49.5353
-31.5434
-19.357
-11.5201
-6.47774
-3.30814
-1.37454
-0.233352
0.413938
0.863506
0.984378
0.834173
0.835812
0.787662
0.715623
0.642477
0.571497
0.499184
0.458724
0.323514
0.695024
106.332
159.028
260.482
437.926
-48.3409
-30.0232
-18.3173
-10.8665
-6.09978
-3.10266
-1.26822
-0.181433
0.434048
0.842247
0.975759
0.847399
0.835582
0.784904
0.711885
0.637893
0.566348
0.49506
0.449028
0.335667
0.641634
86.9438
110.822
193.542
316.778
-67.6523
-41.8643
-25.3691
-15.4915
-9.22325
-5.18591
-2.61575
-1.02043
-0.0635527
0.48005
0.815682
0.949801
0.846067
0.82351
0.769225
0.696609
0.62322
0.552366
0.482204
0.433983
0.326514
0.600708
69.7082
72.7571
113.231
184.972
206.574
9.84162
-114.847
-59.5048
-33.2397
-19.822
-12.0413
-7.17151
-4.02413
-1.9922
-0.707754
0.076259
0.527249
0.759135
0.90268
0.831205
0.800432
0.74266
0.671697
0.600073
0.530842
0.462334
0.41272
0.309335
0.547107
53.561
52.0131
59.8268
71.9573
78.2024
14.8766
-61.2495
-58.065
-35.8926
-21.6457
-13.1229
-7.91396
-4.62878
-2.50943
-1.13664
-0.261815
0.275471
0.569385
0.695864
0.837517
0.797722
0.76285
0.703516
0.635859
0.567568
0.501303
0.435451
0.38527
0.286584
0.482619
39.2914
38.1763
38.2584
38.984
21.5122
0.355863
-25.5126
-25.8428
-18.5668
-11.8204
-7.3416
-4.39274
-2.43565
-1.14815
-0.313306
0.211999
0.525457
0.683132
0.777365
0.776771
0.750088
0.707846
0.651223
0.588933
0.525689
0.463917
0.401981
0.352314
0.259499
0.411447
27.9488
26.7975
25.2885
22.2093
12.4483
-3.80803
-12.8544
-15.5344
-11.711
-8.0108
-5.24953
-3.21985
-1.79284
-0.8223
-0.177589
0.23592
0.487237
0.620732
0.674624
0.698555
0.675078
0.635925
0.586248
0.531321
0.47493
0.419228
0.362611
0.314808
0.229423
0.337573
19.6969
18.4373
16.3292
12.3469
5.71569
-2.74978
-7.90323
-9.31691
-7.55004
-5.50211
-3.73678
-2.33524
-1.30407
-0.581259
-0.0897565
0.231444
0.429741
0.539339
0.59003
0.60202
0.583257
0.551088
0.509941
0.463921
0.415995
0.367881
0.318082
0.273748
0.197632
0.264793
14.0881
12.7496
10.4538
6.62419
1.93359
-2.86523
-5.55917
-6.22747
-5.25062
-3.96764
-2.77416
-1.78314
-1.02432
-0.474619
-0.0910999
0.166215
0.329582
0.424049
0.47119
0.485101
0.475709
0.453422
0.422804
0.387366
0.349445
0.310405
0.268985
0.229942
0.165161
0.196421
10.576
9.13979
6.77331
3.40281
0.0609248
-2.80049
-4.27097
-4.53658
-3.89553
-3.02842
-2.18858
-1.4671
-0.896704
-0.468661
-0.160601
0.0531196
0.194705
0.282201
0.331013
0.352399
0.354258
0.343921
0.325569
0.302163
0.275618
0.247057
0.215591
0.183827
0.132659
0.135029
8.64598
7.09538
4.70811
1.86278
-0.58031
-2.40635
-3.29607
-3.41782
-3.00228
-2.41648
-1.82469
-1.29856
-0.867161
-0.530509
-0.278269
-0.0953887
0.0328557
0.118949
0.173639
0.205298
0.220082
0.223373
0.218681
0.208517
0.19453
0.177726
0.157745
0.135315
0.100226
0.0822847
7.82794
6.19198
3.90051
1.5842
-0.279113
-1.6111
-2.30736
-2.4804
-2.29157
-1.94996
-1.56853
-1.20666
-0.891758
-0.632256
-0.42665
-0.268182
-0.148832
-0.0611112
0.00177091
0.0454617
0.074412
0.0924792
0.102447
0.106437
0.105935
0.101939
0.0948137
0.0837015
0.0672547
0.0388202
7.69293
6.08576
4.08807
2.25494
0.729519
-0.439308
-1.18005
-1.53864
-1.60996
-1.517
-1.34275
-1.13915
-0.936599
-0.751511
-0.590643
-0.455137
-0.343542
-0.253322
-0.181473
-0.125035
-0.081358
-0.0479448
-0.0227755
-0.00409945
0.0094505
0.0189488
0.0257007
0.0276119
0.0321853
0.00403566
7.81469
6.48036
4.96276
3.51708
2.16404
0.986688
0.0834933
-0.529446
-0.887008
-1.05691
-1.09941
-1.06115
-0.97688
-0.870565
-0.757639
-0.647422
-0.545174
-0.453525
-0.373378
-0.304584
-0.246426
-0.197771
-0.15741
-0.124026
-0.0963368
-0.0732098
-0.0521885
-0.0360837
-0.00907929
-0.0252814
7.75012
7.01119
6.00777
4.86216
3.63348
2.42887
1.36386
0.506475
-0.125232
-0.553102
-0.81369
-0.945958
-0.986133
-0.964603
-0.904893
-0.82425
-0.734737
-0.644373
-0.558147
-0.47887
-0.407859
-0.345414
-0.291149
-0.244309
-0.20365
-0.168094
-0.134186
-0.10394
-0.0565442
-0.0522404
7.62179
7.31973
6.68756
5.7848
4.70236
3.54163
2.41501
1.41715
0.601993
-0.0177479
-0.455544
-0.738085
-0.897246
-0.964498
-0.96734
-0.927952
-0.863277
-0.785658
-0.703638
-0.6228
-0.546525
-0.476628
-0.413745
-0.357867
-0.308107
-0.263582
-0.220613
-0.180053
-0.117379
-0.0890824
106.278
158.946
260.397
436.588
-48.1303
-29.8998
-18.2792
-10.8555
-6.09624
-3.10135
-1.26767
-0.181184
0.434163
0.84231
0.975828
0.847456
0.835616
0.784927
0.711901
0.637904
0.566356
0.495064
0.449029
0.335666
0.641618
94.6532
131.299
228.873
380.505
-46.2313
-28.2029
-17.1739
-10.1953
-5.72547
-2.90296
-1.1662
-0.132382
0.453632
0.825274
0.964784
0.855938
0.832961
0.780183
0.706733
0.632269
0.560454
0.490132
0.439557
0.348013
0.585568
79.6019
93.0004
168.726
268.09
405.315
-70.3761
-39.4356
-23.8317
-14.5315
-8.6539
-4.86483
-2.44322
-0.932545
-0.0223085
0.495832
0.801865
0.937585
0.849176
0.818338
0.762734
0.690121
0.616658
0.545826
0.476725
0.424586
0.337941
0.54677
64.222
64.8181
92.7725
159.672
178.195
53.1666
-116.661
-56.0148
-31.5566
-18.8148
-11.4032
-6.77705
-3.79207
-1.86284
-0.640147
0.108249
0.539526
0.751943
0.890082
0.827831
0.792061
0.733944
0.663419
0.592209
0.523372
0.456108
0.403264
0.318923
0.498028
49.6557
48.4724
53.3275
75.033
62.6502
14.4868
-51.8822
-51.9371
-33.3141
-20.4374
-12.4656
-7.52641
-4.39746
-2.37599
-1.06475
-0.227347
0.288365
0.573397
0.690665
0.826979
0.788431
0.751384
0.692648
0.625824
0.5584
0.492887
0.428473
0.375793
0.294077
0.439214
36.6103
35.539
34.6376
31.3323
18.429
0.802258
-22.3024
-23.1628
-16.9445
-10.973
-6.85056
-4.10123
-2.26674
-1.05549
-0.26834
0.228003
0.524313
0.674741
0.768858
0.763494
0.73611
0.694003
0.638424
0.577351
0.515359
0.454651
0.394324
0.342906
0.26479
0.374233
26.1793
25.0037
23.0473
19.0058
10.6046
-3.72558
-11.6582
-14.0771
-10.8642
-7.50296
-4.92639
-3.02279
-1.6776
-0.759447
-0.148754
0.243369
0.481587
0.607786
0.657888
0.680363
0.658473
0.620234
0.571932
0.518551
0.463684
0.409292
0.354416
0.305588
0.232516
0.306774
18.5663
17.3477
15.1579
10.994
4.92105
-2.74806
-7.37766
-8.65541
-7.12467
-5.22445
-3.56219
-2.23464
-1.25151
-0.559289
-0.0874497
0.221836
0.413377
0.51972
0.568704
0.581678
0.564744
0.534051
0.494637
0.450388
0.40416
0.357532
0.309542
0.264856
0.198651
0.2403
13.3791
12.1199
9.86926
6.08797
1.67094
-2.74943
-5.26598
-5.87903
-5.00991
-3.80942
-2.67721
-1.73121
-1.00273
-0.472392
-0.101101
0.149052
0.308731
0.401926
0.449151
0.464138
0.456475
0.435943
0.407188
0.373586
0.337421
0.299953
0.260335
0.221531
0.164343
0.177836
10.1313
8.79312
6.51164
3.24513
0.0433557
-2.65022
-4.06156
-4.32151
-3.74421
-2.9294
-2.13009
-1.43907
-0.889538
-0.475087
-0.175392
0.0335643
0.172912
0.259922
0.309307
0.331894
0.335438
0.326868
0.310323
0.288688
0.263845
0.236851
0.207101
0.176055
0.130337
0.121728
8.35663
6.91364
4.62326
1.87684
-0.488726
-2.24595
-3.12442
-3.26282
-2.89201
-2.34429
-1.78283
-1.27968
-0.864227
-0.538227
-0.292604
-0.113506
0.0129586
0.0986635
0.153848
0.186559
0.202767
0.2076
0.204502
0.19592
0.183476
0.16814
0.149709
0.128353
0.0968147
0.0734921
7.62345
6.09834
3.90036
1.65863
-0.158344
-1.46185
-2.16273
-2.35712
-2.2015
-1.88925
-1.53184
-1.18841
-0.886852
-0.636536
-0.436902
-0.282064
-0.164646
-0.0776498
-0.0146808
0.0296336
0.059563
0.0787854
0.0900046
0.0952831
0.0960749
0.0933659
0.0875482
0.0777312
0.0632381
0.0336875
7.53052
6.03121
4.11084
2.32765
0.833812
-0.318974
-1.06424
-1.4391
-1.53342
-1.46223
-1.30663
-1.11799
-0.926829
-0.750002
-0.594878
-0.463189
-0.353951
-0.265003
-0.193651
-0.137164
-0.0930554
-0.0589716
-0.0329747
-0.013377
0.00115173
0.0116918
0.019458
0.0227444
0.0280332
0.00167631
7.6719
6.42844
4.96425
3.55308
2.22705
1.06632
0.166009
-0.453564
-0.823725
-1.00754
-1.06319
-1.03639
-0.961475
-0.862456
-0.755012
-0.648768
-0.549282
-0.459443
-0.380382
-0.312132
-0.254112
-0.205307
-0.164588
-0.130698
-0.102399
-0.07854
-0.0568448
-0.0394654
-0.012612
-0.0255652
7.63886
6.93713
5.96625
4.8477
3.64444
2.46046
1.40813
0.55579
-0.077028
-0.50969
-0.77695
-0.916508
-0.963713
-0.948465
-0.894081
-0.81777
-0.73165
-0.643848
-0.559478
-0.481481
-0.411286
-0.349292
-0.295197
-0.248307
-0.207441
-0.171505
-0.137243
-0.106102
-0.0591505
-0.0515763
7.52695
7.23121
6.61693
5.73312
4.67057
3.52966
2.41992
1.43428
0.626425
0.00985277
-0.427861
-0.712411
-0.874783
-0.945741
-0.952308
-0.916376
-0.854727
-0.779644
-0.69967
-0.62042
-0.54533
-0.476275
-0.413948
-0.358385
-0.308752
-0.264173
-0.221082
-0.180106
-0.117701
-0.0877864
86.8987
110.69
193.389
315.697
-67.1635
-41.2473
-25.1605
-15.4165
-9.1962
-5.17565
-2.61153
-1.01853
-0.0626255
0.480523
0.815913
0.949982
0.846216
0.823596
0.769282
0.696648
0.623247
0.552383
0.482215
0.433985
0.326511
0.600666
79.5773
92.9155
168.353
266.972
372.12
-69.4304
-39.4741
-23.7772
-14.4952
-8.63792
-4.85821
-2.44037
-0.931228
-0.0216568
0.49617
0.802027
0.937696
0.849265
0.81839
0.762767
0.690144
0.616674
0.545837
0.476731
0.424587
0.337937
0.546744
68.7292
70.4956
122.98
187.753
228.549
-61.2882
-34.3448
-20.511
-12.4446
-7.40102
-4.14966
-2.05566
-0.735336
0.0684156
0.527444
0.778026
0.908403
0.835814
0.799754
0.742745
0.671578
0.599622
0.530168
0.46256
0.409355
0.32755
0.509887
55.7966
54.4275
66.4348
111.707
94.1008
28.12
-86.1221
-84.4787
-48.1324
-27.745
-16.5632
-9.99667
-5.91347
-3.28591
-1.58397
-0.499172
0.169303
0.555208
0.728174
0.85873
0.807193
0.768759
0.710889
0.642485
0.573358
0.506378
0.440984
0.38767
0.30825
0.46378
43.3543
41.9871
43.1445
45.3928
49.0382
3.4385
-36.1703
-40.2568
-28.1096
-17.8704
-11.0599
-6.70582
-3.91227
-2.09883
-0.918743
-0.162039
0.306286
0.566046
0.662791
0.793037
0.760984
0.723565
0.666612
0.602532
0.537734
0.474545
0.412393
0.359894
0.283183
0.40812
32.2494
31.0944
29.8507
27.035
13.9962
-3.90228
-17.428
-19.2099
-14.4406
-9.58749
-6.07284
-3.65536
-2.01839
-0.928322
-0.215683
0.236112
0.50721
0.64585
0.733494
0.727133
0.702681
0.662587
0.609879
0.552042
0.493122
0.435138
0.37743
0.326841
0.253783
0.346637
23.3345
22.2124
20.2931
16.127
8.17185
-2.59219
-10.1626
-11.8302
-9.45514
-6.69238
-4.44412
-2.74488
-1.5286
-0.690916
-0.130298
0.231785
0.453097
0.571299
0.618587
0.639957
0.62137
0.586379
0.541575
0.491783
0.440297
0.38893
0.336958
0.289557
0.22153
0.282841
16.7639
15.665
13.6213
9.61115
3.92854
-2.47157
-6.5533
-7.58811
-6.40213
-4.77632
-3.29298
-2.08867
-1.18533
-0.542681
-0.101468
0.190146
0.37259
0.47552
0.524286
0.539038
0.525849
0.498925
0.463351
0.422877
0.380189
0.336763
0.291859
0.249102
0.187838
0.220026
12.2602
11.1451
9.09077
5.53881
1.42702
-2.48116
-4.77217
-5.31681
-4.60366
-3.54941
-2.52519
-1.65675
-0.980349
-0.482407
-0.130804
0.108432
0.263143
0.35531
0.403819
0.421514
0.417596
0.400933
0.376045
0.346188
0.313544
0.279311
0.242836
0.20633
0.153872
0.161078
9.44302
8.2583
6.17865
3.12336
0.124561
-2.34541
-3.68697
-3.95676
-3.47961
-2.76008
-2.03457
-1.39792
-0.885346
-0.494575
-0.209053
-0.00781661
0.128304
0.215094
0.266098
0.291401
0.298377
0.293411
0.28047
0.262333
0.240817
0.216935
0.190247
0.16171
0.120393
0.108244
7.92374
6.63701
4.5355
1.96178
-0.275383
-1.93807
-2.80883
-2.98639
-2.69199
-2.21506
-1.7098
-1.24871
-0.862501
-0.555816
-0.322078
-0.149641
-0.0261539
0.059088
0.115423
0.150282
0.169264
0.177115
0.177104
0.171575
0.162094
0.149598
0.134002
0.115191
0.0876042
0.0629795
7.32795
5.95554
3.92218
1.81117
0.0773026
-1.18429
-1.89603
-2.13163
-2.03455
-1.77681
-1.46411
-1.155
-0.878333
-0.645169
-0.45671
-0.308657
-0.19484
-0.109196
-0.046053
-0.000557613
0.0312055
0.0526148
0.066201
0.0739172
0.0771567
0.0768762
0.0735314
0.0661163
0.0549997
0.0258242
7.29695
5.93693
4.14684
2.45752
1.0234
-0.101486
-0.853029
-1.25627
-1.39057
-1.35896
-1.23776
-1.07693
-0.90712
-0.74594
-0.601802
-0.477476
-0.372843
-0.286451
-0.216173
-0.159708
-0.114888
-0.0796154
-0.0521207
-0.0308328
-0.014492
-0.00205491
0.00770373
0.0130806
0.0210489
-0.00384369
7.45932
6.32548
4.95221
3.60856
2.33304
1.20347
0.31183
-0.316614
-0.706728
-0.914267
-0.993184
-0.987139
-0.929585
-0.844417
-0.747605
-0.649241
-0.555365
-0.469325
-0.392649
-0.325703
-0.268173
-0.219263
-0.178003
-0.143258
-0.11387
-0.088738
-0.0656253
-0.0466173
-0.0178935
-0.0289345
7.44246
6.80032
5.88527
4.81632
3.65829
2.51123
1.48285
0.641165
0.00802286
-0.432003
-0.710368
-0.862436
-0.921967
-0.917915
-0.873159
-0.80478
-0.724954
-0.641968
-0.56114
-0.485625
-0.41705
-0.355991
-0.302292
-0.255374
-0.214151
-0.177585
-0.142504
-0.110295
-0.062288
-0.052955
7.34389
7.07091
6.48813
5.63949
4.61449
3.51048
2.43215
1.46928
0.674921
0.0639763
-0.373966
-0.662656
-0.831383
-0.909588
-0.923399
-0.894158
-0.838361
-0.768172
-0.692143
-0.615957
-0.543152
-0.475717
-0.414457
-0.359502
-0.310101
-0.265436
-0.222034
-0.180504
-0.117789
-0.0868782
69.6883
72.4479
111.834
184.663
204.272
-151.971
-59.1292
-33.0633
-19.7146
-11.9819
-7.14182
-4.00994
-1.98538
-0.704382
0.0779988
0.528167
0.759609
0.903005
0.831472
0.800593
0.742767
0.671772
0.600125
0.530877
0.462355
0.412725
0.30933
0.54703
64.212
64.7062
92.0166
158.906
176.935
47.0262
-122.609
-56.2302
-31.5746
-18.7746
-11.3665
-6.7555
-3.78102
-1.85734
-0.63736
0.109705
0.540303
0.752345
0.890334
0.828036
0.792188
0.734028
0.663478
0.59225
0.5234
0.456124
0.403268
0.318917
0.49797
55.8013
54.4228
66.294
111.328
94.139
24.9905
-85.8342
-84.6655
-48.1529
-27.7646
-16.5588
-9.98496
-5.90458
-3.2807
-1.58116
-0.497673
0.170113
0.555651
0.728405
0.858872
0.80731
0.768833
0.710939
0.64252
0.573383
0.506395
0.440994
0.387674
0.308247
0.463748
45.7902
44.0396
45.0586
51.1703
57.7931
4.75784
-49.8864
-54.4135
-36.7487
-22.505
-13.6602
-8.25076
-4.8552
-2.66775
-1.24674
-0.335092
0.23154
0.562045
0.680343
0.80668
0.770824
0.7322
0.675406
0.610536
0.544877
0.480938
0.418251
0.365525
0.289004
0.420772
35.8175
34.4105
33.0507
31.7707
17.6151
0.998311
-22.6897
-28.1534
-21.749
-14.6014
-9.27869
-5.68733
-3.32289
-1.76917
-0.7509
-0.0936728
0.316272
0.547347
0.62009
0.737853
0.717059
0.681452
0.627498
0.567713
0.507003
0.447425
0.388507
0.337356
0.264177
0.368912
26.9731
25.8257
24.0263
20.4075
10.6805
-3.18358
-12.8774
-14.5682
-11.5399
-7.98286
-5.17279
-3.14969
-1.74796
-0.800443
-0.174197
0.226725
0.469889
0.596871
0.67833
0.67145
0.652372
0.61602
0.567747
0.514789
0.460466
0.406581
0.35259
0.304096
0.235219
0.311654
19.8364
18.8234
16.9378
12.9564
6.05796
-2.25247
-8.11751
-9.43921
-7.85443
-5.72939
-3.87346
-2.42431
-1.3657
-0.625965
-0.125334
0.201518
0.403755
0.513931
0.559592
0.580708
0.566988
0.536987
0.497373
0.452834
0.40629
0.359377
0.311511
0.266878
0.203613
0.252289
14.5183
13.5812
11.7543
8.07998
3.0725
-2.14921
-5.51663
-6.37547
-5.52587
-4.21529
-2.95626
-1.90923
-1.10895
-0.530435
-0.128544
0.14064
0.311851
0.410985
0.460216
0.477632
0.469738
0.448313
0.418259
0.383202
0.345603
0.306822
0.266275
0.226826
0.170769
0.193915
10.8523
9.92043
8.13237
4.9139
1.25062
-2.10239
-4.10407
-4.60901
-4.07781
-3.20697
-2.32481
-1.55953
-0.952968
-0.499105
-0.17415
0.0502602
0.198243
0.289072
0.339436
0.360867
0.362148
0.350941
0.331505
0.306948
0.279312
0.249719
0.217677
0.184842
0.137846
0.139257
8.56885
7.57738
5.76532
2.99901
0.281553
-1.92908
-3.17188
-3.47053
-3.12069
-2.52686
-1.90147
-1.33934
-0.878013
-0.520583
-0.255177
-0.0650681
0.0662109
0.1524
0.205438
0.234345
0.245969
0.24597
0.23804
0.224803
0.207976
0.188524
0.166152
0.141437
0.105605
0.0904454
7.36734
6.27782
4.42656
2.08618
0.0256349
-1.51992
-2.37509
-2.60773
-2.41299
-2.03144
-1.60356
-1.20106
-0.856282
-0.577321
-0.360941
-0.198476
-0.0797184
0.00440716
0.0619848
0.0995648
0.122209
0.134147
0.138376
0.137083
0.131748
0.123265
0.111669
0.0966016
0.0742596
0.0488669
6.94078
5.76234
3.9487
2.01505
0.39654
-0.808295
-1.52988
-1.81929
-1.79907
-1.61517
-1.36424
-1.10322
-0.861964
-0.653562
-0.481524
-0.34367
-0.235503
-0.152261
-0.0892805
-0.0424506
-0.00836259
0.0159414
0.0327307
0.043796
0.0504367
0.0535621
0.0537095
0.049731
0.0433366
0.0150402
6.98322
5.80104
4.18676
2.62654
1.27616
0.191902
-0.563722
-1.00246
-1.1889
-1.21062
-1.13674
-1.0148
-0.875287
-0.736619
-0.608518
-0.495123
-0.397497
-0.315161
-0.246776
-0.190656
-0.145083
-0.108322
-0.0788551
-0.055281
-0.0364464
-0.0213724
-0.00880015
-0.000506746
0.0113718
-0.0116289
7.16848
6.17487
4.92539
3.67555
2.47086
1.3865
0.510357
-0.127109
-0.542194
-0.781088
-0.891633
-0.914345
-0.88124
-0.815842
-0.7344
-0.647571
-0.562028
-0.481729
-0.408753
-0.34393
-0.287322
-0.238442
-0.196556
-0.160703
-0.129846
-0.102968
-0.0778575
-0.0566317
-0.0250806
-0.0339121
7.1701
6.60602
5.76665
4.76636
3.67132
2.57646
1.58318
0.758318
0.126586
-0.32234
-0.615339
-0.784426
-0.861047
-0.872737
-0.841665
-0.784663
-0.713947
-0.637995
-0.562395
-0.490588
-0.424475
-0.364878
-0.31185
-0.264981
-0.223314
-0.185909
-0.149681
-0.116046
-0.0664117
-0.0551775
7.0896
6.84716
6.30653
5.50641
4.53372
3.48126
2.4472
1.51685
0.742201
0.139856
-0.29785
-0.59195
-0.769358
-0.857642
-0.881628
-0.861858
-0.814391
-0.75121
-0.680854
-0.609098
-0.539615
-0.47455
-0.414863
-0.360815
-0.311776
-0.267015
-0.223181
-0.180918
-0.117703
-0.0857841
53.7941
52.6913
61.3466
87.878
72.7461
15.7927
-54.2645
-59.1348
-36.0503
-21.6618
-13.0963
-7.88532
-4.60801
-2.49642
-1.12903
-0.257465
0.277955
0.570811
0.696631
0.837943
0.798084
0.763089
0.703681
0.635977
0.567651
0.50136
0.435487
0.385281
0.286579
0.482506
49.768
48.6972
53.7701
77.1052
62.0581
14.3674
-49.5196
-52.2966
-33.4863
-20.4685
-12.4542
-7.50678
-4.38146
-2.36542
-1.05838
-0.223648
0.290502
0.574635
0.691345
0.827347
0.788738
0.75159
0.69279
0.625926
0.558472
0.492937
0.428504
0.375804
0.29407
0.439123
43.4155
42.097
43.3674
45.648
49.3059
3.41166
-36.1477
-40.3684
-28.1699
-17.8887
-11.0576
-6.69655
-3.90328
-2.09233
-0.914583
-0.159519
0.307787
0.566932
0.663297
0.793307
0.76121
0.723721
0.666721
0.602611
0.537791
0.474585
0.412418
0.359904
0.283179
0.408055
35.8466
34.4619
33.1438
31.8779
17.7052
1.0027
-22.6906
-28.1776
-21.768
-14.6084
-9.27869
-5.68434
-3.31949
-1.76647
-0.749058
-0.0925039
0.316992
0.547778
0.620355
0.737992
0.717176
0.681536
0.627558
0.567757
0.507036
0.447448
0.388522
0.337362
0.264176
0.368879
28.3445
27.1613
25.2926
21.8087
11.5954
-0.348283
-13.4821
-18.0501
-15.3645
-11.049
-7.31836
-4.58777
-2.70997
-1.44717
-0.608036
-0.0601902
0.285715
0.486703
0.542836
0.666397
0.656528
0.625266
0.57607
0.522109
0.466929
0.412265
0.357666
0.308895
0.239846
0.321628
21.6851
20.7098
18.8855
15.0292
7.45619
-2.71376
-9.04845
-10.5045
-8.77196
-6.33662
-4.22175
-2.61303
-1.46166
-0.66746
-0.134989
0.210075
0.422114
0.537163
0.610372
0.600811
0.58663
0.555577
0.513427
0.466859
0.41854
0.370043
0.320883
0.275562
0.21164
0.269489
16.2643
15.4397
13.7669
10.0922
4.46048
-1.947
-6.16909
-7.27933
-6.29918
-4.74778
-3.28805
-2.10226
-1.21156
-0.575791
-0.138636
0.151419
0.334292
0.437393
0.483755
0.505913
0.49783
0.47422
0.441295
0.403438
0.363185
0.321986
0.279353
0.238597
0.181036
0.21549
12.1879
11.4498
9.91466
6.64256
2.42718
-1.77618
-4.43303
-5.17986
-4.61761
-3.6142
-2.5943
-1.7186
-1.03303
-0.526454
-0.168509
0.0756288
0.234463
0.329737
0.380218
0.401149
0.399617
0.38498
0.361789
0.333467
0.302225
0.269293
0.234219
0.199194
0.149427
0.162496
9.37159
8.64512
7.1613
4.3251
1.16181
-1.66048
-3.36182
-3.84982
-3.49738
-2.82017
-2.09626
-1.44866
-0.922718
-0.520881
-0.22743
-0.0207501
0.119046
0.208104
0.260565
0.286387
0.293783
0.289123
0.276305
0.258223
0.236748
0.212919
0.18639
0.158316
0.117959
0.113035
7.63677
6.85654
5.3403
2.90259
0.501185
-1.44562
-2.58041
-2.91896
-2.70435
-2.25004
-1.74007
-1.26553
-0.86563
-0.548818
-0.308396
-0.132433
-0.007682
0.0771862
0.132206
0.165104
0.18204
0.187868
0.185906
0.178571
0.167446
0.153437
0.13639
0.116527
0.0873891
0.0690958
6.76222
5.88811
4.31445
2.23999
0.382356
-1.03591
-1.86996
-2.1647
-2.07925
-1.80616
-1.46906
-1.1366
-0.842397
-0.597914
-0.403645
-0.254279
-0.142171
-0.0601817
-0.0017304
0.0386475
0.06534
0.0819607
0.0911543
0.0948996
0.0945541
0.0909568
0.0842644
0.0738728
0.0579445
0.0319795
6.50715
5.54198
3.97539
2.2457
0.762617
-0.374939
-1.10211
-1.44945
-1.51411
-1.41469
-1.23642
-1.03314
-0.835241
-0.657748
-0.506671
-0.382202
-0.281812
-0.20228
-0.140156
-0.0922354
-0.0557414
-0.0282305
-0.00776789
0.00722322
0.0179163
0.0251517
0.0295546
0.0298113
0.0291884
0.00217683
6.62019
5.63524
4.22139
2.8115
1.56115
0.528067
-0.226485
-0.701555
-0.944907
-1.02724
-1.00869
-0.933206
-0.830573
-0.719806
-0.611956
-0.512656
-0.424319
-0.347608
-0.28212
-0.226909
-0.180816
-0.14255
-0.110908
-0.0847119
-0.0629451
-0.0447203
-0.0287414
-0.0168965
-0.000257624
-0.0208714
6.82457
5.98756
4.88067
3.74118
2.62155
1.5936
0.74025
0.0966221
-0.34423
-0.617894
-0.764862
-0.821533
-0.817874
-0.776693
-0.714371
-0.64211
-0.567266
-0.494488
-0.426491
-0.36466
-0.309512
-0.260939
-0.218497
-0.181448
-0.148907
-0.119971
-0.0924616
-0.0685667
-0.0336042
-0.0397699
6.84467
6.36804
5.61633
4.69727
3.67778
2.64659
1.6976
0.895663
0.268312
-0.189185
-0.498371
-0.687157
-0.784068
-0.81478
-0.800471
-0.757572
-0.698268
-0.631223
-0.562318
-0.495324
-0.432465
-0.374861
-0.322817
-0.276132
-0.234012
-0.195644
-0.158055
-0.122726
-0.0711606
-0.0577032
6.78384
6.57594
6.08449
5.3422
4.43241
3.44225
2.46227
1.57228
0.822719
0.23196
-0.204543
-0.504579
-0.692167
-0.792559
-0.828941
-0.820822
-0.783681
-0.729244
-0.666011
-0.599848
-0.534585
-0.472551
-0.414892
-0.36203
-0.313486
-0.268642
-0.224297
-0.181169
-0.117391
-0.0843211
39.4397
38.5331
38.455
36.5864
22.4572
0.363679
-25.1376
-26.0272
-18.6244
-11.8219
-7.33016
-4.37917
-2.42417
-1.13965
-0.30741
0.215942
0.528043
0.68482
0.778517
0.777488
0.750566
0.708167
0.651449
0.589096
0.525808
0.464001
0.402035
0.352335
0.259497
0.411304
36.6988
35.7006
34.9186
31.3921
18.9007
0.855018
-22.2523
-23.254
-16.9794
-10.9734
-6.84197
-4.09089
-2.25767
-1.04859
-0.263456
0.231326
0.526524
0.6762
0.769868
0.764128
0.736535
0.694292
0.638628
0.577499
0.515467
0.454728
0.394374
0.342926
0.264785
0.374114
32.2978
31.1625
29.9495
26.9432
14.1458
-3.90606
-17.4126
-19.2435
-14.4527
-9.58528
-6.06665
-3.64851
-2.01232
-0.923562
-0.212198
0.238555
0.508878
0.646977
0.734303
0.727649
0.703031
0.662828
0.610052
0.552169
0.493215
0.435205
0.377474
0.32686
0.25378
0.346543
26.9974
25.8578
24.0649
20.3709
10.7466
-3.17584
-12.865
-14.5775
-11.5424
-7.98036
-5.16906
-3.14585
-1.74455
-0.797707
-0.172128
0.228223
0.470943
0.597601
0.678888
0.671813
0.652619
0.616193
0.567874
0.514883
0.460536
0.406632
0.352625
0.304112
0.235219
0.311591
21.6907
20.7154
18.8894
15.0085
7.47156
-2.70945
-9.04249
-10.5063
-8.77242
-6.33573
-4.22044
-2.61159
-1.4603
-0.66631
-0.13408
0.210756
0.422607
0.537513
0.610673
0.601009
0.58676
0.555668
0.513495
0.46691
0.418578
0.370071
0.320903
0.275573
0.211642
0.269459
16.9263
16.142
14.5201
10.8397
4.91708
-2.13575
-6.414
-7.52497
-6.48747
-4.84252
-3.31362
-2.09202
-1.18576
-0.54451
-0.106901
0.181015
0.36051
0.459755
0.511009
0.517064
0.507642
0.482955
0.448714
0.409875
0.368772
0.326813
0.283543
0.242431
0.184485
0.223003
13.0055
12.3715
10.9771
7.69373
3.15017
-1.64351
-4.64313
-5.50934
-4.9105
-3.81495
-2.71327
-1.78001
-1.05699
-0.527123
-0.155753
0.0954266
0.257261
0.352385
0.402051
0.419318
0.416824
0.400671
0.375661
0.345617
0.312739
0.278301
0.241897
0.206013
0.155202
0.174964
10.037
9.4894
8.24932
5.40514
1.92294
-1.39714
-3.46472
-4.10923
-3.76278
-3.02706
-2.23439
-1.52859
-0.959564
-0.528202
-0.216382
0.00108655
0.14654
0.237529
0.289829
0.313817
0.319118
0.312062
0.296661
0.276015
0.25207
0.225924
0.197248
0.167588
0.125162
0.127949
7.99058
7.45845
6.26598
3.82107
1.14046
-1.20132
-2.63578
-3.11328
-2.91624
-2.42181
-1.85612
-1.3302
-0.889668
-0.544344
-0.285629
-0.0988715
0.0313408
0.117857
0.172184
0.202632
0.216479
0.218915
0.213411
0.202562
0.188044
0.170799
0.150621
0.128179
0.0954915
0.0842668
6.75595
6.17689
4.94465
2.84078
0.75588
-0.939486
-1.9716
-2.35065
-2.26379
-1.94861
-1.55883
-1.17795
-0.845586
-0.574391
-0.36282
-0.203709
-0.0873151
-0.00489451
0.0515355
0.0882958
0.110646
0.122627
0.127121
0.126268
0.121492
0.113621
0.10264
0.0884108
0.0669397
0.045744
6.17725
5.51088
4.20937
2.40698
0.759185
-0.529482
-1.33827
-1.69276
-1.71432
-1.5523
-1.3116
-1.05545
-0.817774
-0.612777
-0.444577
-0.311224
-0.207832
-0.129353
-0.0708549
-0.0280882
0.00253584
0.0239586
0.0384076
0.0475996
0.0527406
0.0545928
0.0534325
0.048392
0.0397502
0.0135853
6.07245
5.31578
3.99699
2.47899
1.14008
0.0768511
-0.649146
-1.05062
-1.19894
-1.18648
-1.08561
-0.945477
-0.796119
-0.654083
-0.527687
-0.419476
-0.329001
-0.254699
-0.194445
-0.146049
-0.10746
-0.0768156
-0.0525718
-0.0334127
-0.0183217
-0.00654993
0.00261123
0.0076547
0.0135307
-0.0117494
6.24112
5.45134
4.24245
2.99115
1.84972
0.876021
0.129837
-0.376911
-0.67535
-0.81946
-0.859372
-0.834341
-0.772707
-0.693647
-0.609326
-0.526795
-0.449846
-0.38034
-0.31889
-0.265363
-0.219233
-0.17971
-0.145958
-0.117058
-0.0921627
-0.0705017
-0.0507488
-0.0349371
-0.0129981
-0.0307785
6.45538
5.77475
4.81566
3.79408
2.76778
1.80436
0.981124
0.336698
-0.126956
-0.434868
-0.61957
-0.712593
-0.741243
-0.727194
-0.686699
-0.631366
-0.569189
-0.505506
-0.443704
-0.385762
-0.332703
-0.284841
-0.242062
-0.203887
-0.169607
-0.138465
-0.108328
-0.0814862
-0.0427884
-0.0459227
6.49029
6.10138
5.4413
4.60964
3.67289
2.71284
1.81514
1.04184
0.422805
-0.0412658
-0.366301
-0.575647
-0.694453
-0.746156
-0.750661
-0.723816
-0.67767
-0.621022
-0.560032
-0.498812
-0.439933
-0.384839
-0.33412
-0.287809
-0.245302
-0.205938
-0.166879
-0.129701
-0.0760847
-0.0601695
6.44826
6.27526
5.83574
5.15618
4.31544
3.39421
2.47478
1.6308
0.910679
0.334335
-0.0995789
-0.405338
-0.603739
-0.717405
-0.767619
-0.772659
-0.747289
-0.702901
-0.647912
-0.588266
-0.527955
-0.469504
-0.414264
-0.362839
-0.314921
-0.270024
-0.225134
-0.181059
-0.116754
-0.0824212
27.9765
26.8119
25.0082
21.2759
12.7292
-3.83841
-12.8265
-15.6118
-11.7322
-8.00864
-5.24111
-3.20947
-1.78357
-0.815116
-0.172411
0.239509
0.489678
0.622384
0.675766
0.699333
0.675615
0.636306
0.586525
0.531527
0.475084
0.41934
0.362687
0.314842
0.229428
0.337411
26.2057
25.0333
23.0446
18.8807
10.7644
-3.72762
-11.6319
-14.1119
-10.8747
-7.49966
-4.91913
-3.01432
-1.66992
-0.753379
-0.144298
0.246509
0.483752
0.609269
0.658923
0.681076
0.658968
0.620587
0.572191
0.518744
0.463829
0.409399
0.354487
0.305621
0.232517
0.306637
23.3509
22.2275
20.2956
16.017
8.23867
-2.59462
-10.148
-11.8458
-9.45837
-6.68837
-4.43822
-2.73855
-1.5229
-0.686335
-0.126854
0.23427
0.454849
0.572523
0.619458
0.64057
0.621802
0.586691
0.541807
0.491958
0.44043
0.389028
0.337024
0.28959
0.221532
0.282728
19.8443
18.8308
16.9403
12.9052
6.09519
-2.24998
-8.109
-9.4454
-7.85513
-5.72628
-3.86937
-2.4201
-1.36193
-0.622893
-0.122974
0.203263
0.405016
0.514834
0.56025
0.581187
0.567331
0.53724
0.497563
0.45298
0.406401
0.359461
0.311569
0.266909
0.203619
0.252206
16.265
15.439
13.7638
10.0684
4.47272
-1.94592
-6.16563
-7.2816
-6.29934
-4.74619
-3.28587
-2.09995
-1.20943
-0.574013
-0.137235
0.152482
0.33508
0.43797
0.484187
0.506239
0.498068
0.474397
0.441431
0.403544
0.363267
0.322048
0.279397
0.238622
0.181044
0.215439
13.0044
12.3697
10.9747
7.68625
3.15257
-1.64367
-4.64258
-5.51014
-4.91061
-3.81442
-2.71245
-1.77909
-1.05611
-0.526375
-0.155152
0.0958925
0.257614
0.352651
0.402254
0.419473
0.416942
0.400763
0.375733
0.345674
0.312784
0.278335
0.241922
0.206028
0.155208
0.174942
10.2939
9.8089
8.65766
5.81634
2.22325
-1.29113
-3.49713
-4.20478
-3.86167
-3.10354
-2.28541
-1.55863
-0.974243
-0.532345
-0.213987
0.00728391
0.154732
0.246339
0.29862
0.321746
0.326817
0.319156
0.302978
0.281551
0.256842
0.229979
0.200647
0.170534
0.127531
0.133158
8.23391
7.83759
6.83741
4.41074
1.57629
-1.01055
-2.63812
-3.21213
-3.03465
-2.52191
-1.92686
-1.37303
-0.91009
-0.548667
-0.279531
-0.0864807
0.0471696
0.135019
0.189401
0.218961
0.231711
0.232741
0.22569
0.213283
0.197242
0.178544
0.156982
0.13347
0.099342
0.0924175
6.82519
6.45155
5.49726
3.41937
1.17706
-0.749375
-1.96457
-2.43812
-2.37393
-2.04355
-1.62521
-1.21544
-0.858858
-0.570155
-0.346966
-0.18088
-0.0609283
0.0225883
0.0785299
0.113733
0.134053
0.143734
0.145815
0.142556
0.135434
0.125292
0.112061
0.0959159
0.0717398
0.0547964
6.00387
5.5941
4.60282
2.81093
1.02264
-0.443832
-1.3836
-1.79895
-1.82619
-1.64119
-1.36816
-1.08073
-0.817713
-0.594537
-0.414266
-0.274063
-0.167677
-0.0889332
-0.0319402
0.00820259
0.0356638
0.0536902
0.0646982
0.0705148
0.0723831
0.07104
0.0666023
0.0585547
0.0454651
0.021947
5.66447
5.17806
4.11746
2.57226
1.12712
-0.0353938
-0.814963
-1.22078
-1.33963
-1.28346
-1.13813
-0.959705
-0.781201
-0.618721
-0.479468
-0.364571
-0.271872
-0.198429
-0.141001
-0.0965951
-0.0625396
-0.0365921
-0.0169806
-0.00228917
0.00851044
0.0160848
0.0208201
0.0215637
0.0207791
-0.00503053
5.67324
5.10157
4.01022
2.69611
1.50069
0.51547
-0.201297
-0.647808
-0.871941
-0.94243
-0.918222
-0.842581
-0.744153
-0.640351
-0.541307
-0.451703
-0.3731
-0.305586
-0.248392
-0.200381
-0.160302
-0.126907
-0.0990819
-0.0758072
-0.0562495
-0.0397721
-0.0255955
-0.0154447
-0.00265871
-0.0257096
5.87459
5.26114
4.24552
3.15006
2.11966
1.21073
0.480897
-0.0493521
-0.396279
-0.598438
-0.695662
-0.721741
-0.702765
-0.657534
-0.598921
-0.535175
-0.471364
-0.410512
-0.354248
-0.303284
-0.257762
-0.217425
-0.181834
-0.150363
-0.122355
-0.0971775
-0.0734919
-0.0534976
-0.0260178
-0.0405634
6.08599
5.54839
4.73116
3.8272
2.89682
2.0027
1.21595