/*--------------------------------*- C++ -*----------------------------------*\
  =========                 |
  \\      /  F ield         | OpenFOAM: The Open Source CFD Toolbox
   \\    /   O peration     | Website:  https://openfoam.org
    \\  /    A nd           | Version:  10
     \\/     M anipulation  |
\*---------------------------------------------------------------------------*/
FoamFile
{
    format      ascii;
    class       surfaceScalarField;
    location    "700";
    object      phi;
}
// * * * * * * * * * * * * * * * * * * * * * * * * * * * * * * * * * * * * * //

dimensions      [0 3 -1 0 0 0 0];

internalField   nonuniform List<scalar> 
81522
(
525.511
8.66132
8.65382
113.535
32.0202
31.9818
115.4
115.439
117.135
94.0557
9.70291
9.77645
-14.8846
3.26392
3.27187
2.04066
2.10886
2.10942
2.08987
1.14572
-0.669122
-0.767076
0.290478
-6.4098
-1.00462
-1.05527
8.46969
-13.8967
15.4264
-0.756667
-0.773041
-19.2518
20.3036
-0.523042
-0.528785
-22.9212
23.6427
-0.359599
-0.361867
-25.4526
25.9569
-0.251628
-0.252648
-27.2373
27.5988
-0.180501
-0.181015
-28.5284
28.7944
-0.132842
-0.133128
-29.4866
29.6871
-0.100177
-0.10035
-30.2179
122.108
-0.593786
-0.594644
-30.23
-30.23
-30.242
500.193
-3.42633
-3.43065
-123.189
-123.335
-123.335
-123.478
505.788
-2.79576
-2.79908
510.379
-2.29377
-2.2964
514.187
-1.90294
-1.9051
517.379
-1.5952
-1.59702
520.08
-1.34983
-1.35139
522.384
-1.1514
-1.15276
524.363
-0.98868
-0.989882
526.058
-0.847343
-0.848408
527.535
-0.737888
-0.738831
-0.579915
-0.580738
530.005
14.3329
7.51226
118.767
50.4796
26.8573
122.375
120.192
123.353
-17.8715
104.803
23.5819
8.25349
-11.2736
-19.7676
13.0645
2.77031
3.87599
3.73611
3.67771
3.91659
-2.74514
3.57318
-4.93547
-0.909199
5.01663
-11.2084
3.8402
-0.950885
-4.60658
12.9256
2.75201
-17.1733
18.3396
-3.24433
-0.673929
1.90394
-21.2631
22.0773
-2.25316
-0.464924
1.32683
-24.1415
24.7225
-1.58346
-0.324464
0.942176
-26.2095
26.6321
-1.13379
-0.231019
0.684339
-27.7235
28.0367
-0.829291
-0.168261
0.508639
-28.8531
29.0896
-0.619808
-0.125362
0.386425
-29.7117
29.8938
-0.473037
-0.0954566
-30.3878
1.15707
122.771
-1.67546
-0.566392
-30.4441
-30.3991
-30.455
502.465
-6.36946
-3.25276
-123.8
-124.202
-123.936
-124.331
507.572
-5.23474
-2.66886
511.809
-4.32984
-2.20055
515.353
-3.61371
-1.83333
518.345
-3.0447
-1.54241
520.892
-2.58775
-1.30923
523.077
-2.21586
-1.11983
524.96
-1.90815
-0.963886
526.585
-1.64375
-0.828279
527.989
-1.41877
-0.723838
-1.16763
-0.566387
535.717
16.4875
5.97408
126.161
54.3909
19.9355
129.16
126.884
129.665
-26.2503
119.696
26.8791
5.83615
-14.857
-27.2568
25.6802
14.6793
1.75446
-0.818717
0.535252
0.416892
-0.133447
-16.7342
8.27133
-8.46162
-0.971694
17.8962
5.78023
-20.385
-0.671362
21.0661
-5.78999
4.0398
-22.8656
23.4013
-4.09839
-0.477166
2.89153
-24.8452
25.2768
-2.97854
-0.344666
2.10539
-26.4398
26.7868
-2.19989
-0.252512
1.55682
-27.7195
27.9972
-1.64689
-0.187676
1.16965
-28.743
28.9651
-1.25003
-0.141622
0.893178
-29.5616
29.7395
-0.962505
-0.108545
0.69337
-30.2188
30.3623
-0.752367
-0.0845302
-30.7669
2.11563
124.138
-2.4891
-0.508629
-30.8515
-30.7765
-30.8606
506.533
-8.51901
-2.94121
-125.021
-125.587
-125.139
-125.694
510.819
-7.08397
-2.43733
514.442
-5.92438
-2.02828
517.522
-4.99061
-1.70307
520.157
-4.23765
-1.44237
522.427
-3.62583
-1.23138
524.392
-3.12294
-1.0586
526.103
-2.7029
-0.915359
527.59
-2.34094
-0.790261
528.89
-2.02527
-0.693513
-1.69305
-0.545519
540.795
16.2569
4.56815
530.574
50.356
14.2555
129.484
97.8764
28.7373
-26.3606
-35.7378
-25.5441
-34.4016
132.954
130.195
133.372
-53.1729
130.866
44.5135
7.27742
-22.9757
-33.8876
35.8777
19.2321
1.75364
-3.8635
0.737866
3.63873
-0.518117
-2.49075
2.86806
-2.35403
1.9761
11.3814
-28.2326
27.657
-9.97924
-0.826621
7.24378
-26.9406
-0.547595
26.8712
-6.62681
5.16323
-26.9419
27.0286
-4.85395
-0.395974
3.87609
-27.397
27.5432
-3.72118
-0.301036
2.9677
-28.0225
28.1882
-2.90071
-0.23274
2.29396
-28.6886
28.8522
-2.27646
-0.181119
1.78506
-29.3279
29.479
-1.79443
-0.141696
1.39927
-29.9091
30.0433
-1.42192
-0.111575
1.10622
-30.4208
30.5374
-1.13426
-0.088551
0.883511
-30.863
30.9632
-0.912779
-0.0709402
-31.2621
2.76697
125.903
-2.98061
-0.436152
-31.3572
-31.2697
-31.3644
511.699
-9.8076
-2.55786
-126.602
-127.233
-126.698
-127.319
515.03
-8.26867
-2.14667
517.918
-7.00475
-1.80804
520.429
-5.96698
-1.53401
522.617
-5.11528
-1.31077
524.532
-4.41311
-1.12778
526.215
-3.82898
-0.976328
527.697
-3.3359
-0.849641
529.003
-2.90823
-0.738269
530.159
-2.5303
-0.651676
-2.13804
-0.517784
544.462
14.6294
3.36032
541.746
43.2198
9.85161
546.246
75.7375
17.6388
142.356
109.3
6.91807
-37.0426
-43.496
-35.6148
-41.7391
141.821
142.315
141.795
7.99175
5.66551
5.97635
-49.1487
148.501
38.0643
4.93884
-11.0443
-39.3758
40.5573
0.621893
9.24084
-0.817623
-42.4447
41.7131
0.0630013
1.48623
6.08718
-37.5415
140.741
-13.7743
-2.15842
6.37361
5.96
6.27828
-37.5714
-37.2027
-37.192
6.03812
-133.896
129.323
-16.6388
-2.26739
5.96333
5.77143
5.70676
4.81364
-126.252
124.365
-14.9031
-1.92794
4.58549
4.76956
4.54905
3.86259
-123.15
122.46
-12.7908
-1.59999
3.70404
3.83545
3.67902
3.15529
-122.089
121.986
-10.9056
-1.33262
3.03295
3.13641
3.01591
2.5893
-122.062
122.279
-9.24075
-1.11042
2.49049
2.57591
2.47827
2.12225
-122.603
122.997
-7.78034
-0.922299
2.04124
2.11273
2.03249
1.73609
-123.45
123.928
-6.51425
-0.763512
1.67027
1.72934
1.664
1.41978
-124.434
124.937
-5.43573
-0.631084
1.36672
1.41497
1.36222
1.16302
-125.449
125.941
-4.53056
-0.521949
1.1204
1.15959
1.11715
0.95601
-126.43
126.893
-3.78118
-0.433086
0.922519
0.953523
0.92013
3.10391
-127.351
127.784
-3.17511
-0.361989
517.305
-10.3298
-2.15844
-128.305
-128.933
-128.382
-129.003
519.712
-8.83902
-1.83718
521.864
-7.58775
-1.56871
523.786
-6.54241
-1.34699
525.502
-5.66777
-1.16292
527.033
-4.93504
-1.0098
528.403
-4.31743
-0.8815
529.631
-3.79034
-0.773142
530.729
-3.32965
-0.677173
531.72
-2.91868
-0.602215
-2.49053
-0.484658
546.669
12.3643
2.40938
547.388
35.6408
6.85979
552.707
58.9773
11.4416
567.673
78.5967
15.7372
147.608
81.0527
15.9616
-30.141
-28.7002
-29.2871
-27.8942
145.902
147.4
145.771
-23.5073
149.914
19.3097
1.89118
-6.59963
-150.398
148.877
7.48942
0.631542
557.318
-6.84303
-2.90552
7.2629
9.59239
6.73226
9.07621
-145.757
-144.492
-145.604
-144.38
538.967
-21.4599
-5.35624
11.534
11.4856
11.0516
11.0958
527.182
-27.1558
-5.92132
11.6392
11.1082
11.2913
10.8238
520.202
-28.302
-5.76247
10.6656
10.0889
10.4143
9.87574
516.391
-27.3045
-5.32925
9.46956
8.92912
9.28128
8.7645
514.691
-25.3327
-4.79982
8.27305
7.77873
8.12769
7.65365
514.391
-22.9289
-4.25122
7.14206
6.70089
7.03147
6.60534
515.018
-20.4182
-3.72015
6.10934
5.72442
6.0257
5.65184
516.224
-17.973
-3.22828
5.19328
4.86359
5.13025
4.80858
517.758
-15.6963
-2.78664
4.39841
4.12073
4.35091
4.07896
519.446
-13.6435
-2.4001
3.72046
3.49084
3.68456
3.45918
521.193
-11.8272
-2.06561
3.15177
2.9532
3.12269
2.91838
522.883
-10.2398
-1.77992
524.479
-8.89672
-1.53832
525.968
-7.744
-1.33297
527.345
-6.75972
-1.15914
528.609
-5.9196
-1.01194
529.765
-5.2042
-0.887538
530.823
-4.59314
-0.781981
531.791
-4.06611
-0.691981
532.675
-3.60212
-0.611718
533.49
-3.18524
-0.548839
-2.74545
-0.448525
547.821
9.97824
1.69291
550.109
28.5991
4.75411
555.517
45.9481
7.62084
565.208
59.0289
9.87633
575.777
60.5648
9.91966
579.413
47.0482
7.27043
-16.3238
-12.8704
-16.0509
-12.7096
573.492
25.5996
3.49411
-7.58563
-3.971
-7.56046
-4.05547
561.406
5.27237
-0.0301908
549.816
-7.85068
-2.01908
540.737
-15.1139
-2.96245
534.303
-18.5588
-3.30971
530.021
-19.6919
-3.33094
527.359
-19.4888
-3.18179
525.887
-18.5081
-2.94874
525.277
-17.1297
-2.67803
525.275
-15.5729
-2.39856
525.689
-13.9821
-2.12779
526.371
-12.4493
-1.8761
527.21
-11.0189
-1.64768
528.137
-9.72114
-1.44531
529.082
-8.57274
-1.26905
530.016
-7.56246
-1.11532
530.918
-6.68044
-0.982259
531.779
-5.9128
-0.867392
532.592
-5.24871
-0.768794
533.358
-4.6743
-0.684093
534.077
-4.17425
-0.611262
534.752
-3.73159
-0.545978
535.394
-3.33225
-0.494794
-2.90298
-0.411634
548.299
7.75441
1.17193
551.114
22.501
3.28322
556.019
35.8868
5.15629
563.026
45.5247
6.49693
569.845
47.166
6.57999
572.604
39.0866
5.20265
569.807
25.2984
3.09836
563.084
10.9956
0.999402
555.541
0.145436
-0.452768
548.839
-7.07055
-1.34151
543.483
-11.3819
-1.82138
539.47
-13.6458
-2.03237
536.582
-14.5249
-2.07652
534.621
-14.5261
-2.02097
533.377
-13.9778
-1.90727
532.679
-13.1117
-1.76323
532.388
-12.0847
-1.60699
532.392
-11.0028
-1.45033
532.604
-9.9305
-1.29993
532.956
-8.91246
-1.16107
533.393
-7.97413
-1.03535
533.878
-7.12513
-0.922751
534.387
-6.36658
-0.823063
534.904
-5.69351
-0.735312
535.416
-5.10229
-0.658814
535.919
-4.58504
-0.592337
536.411
-4.13146
-0.534783
536.891
-3.72897
-0.483099
537.368
-3.36637
-0.442668
-2.96678
-0.375833
548.369
5.84246
0.804671
551.196
17.3979
2.27605
555.48
28.0387
3.56355
560.89
35.6637
4.45159
565.89
37.5823
4.5834
568.315
32.8113
3.85029
567.303
23.6772
2.63276
563.547
13.4294
1.32298
558.704
4.70403
0.284318
553.885
-1.80191
-0.449745
549.648
-6.22301
-0.921613
546.161
-8.96568
-1.19384
543.422
-10.4587
-1.32718
541.342
-11.0795
-1.36673
539.817
-11.1073
-1.34509
538.743
-10.7522
-1.28556
538.028
-10.1653
-1.2044
537.592
-9.45394
-1.11283
537.37
-8.69002
-1.01817
537.307
-7.92442
-0.925694
537.36
-7.18836
-0.838349
537.494
-6.50166
-0.75773
537.685
-5.87323
-0.684568
537.915
-5.30469
-0.618835
538.172
-4.798
-0.56064
538.447
-4.35027
-0.509529
538.736
-3.95591
-0.465064
539.039
-3.60683
-0.425262
539.363
-3.29587
-0.394323
-2.94219
-0.342518
548.243
4.24562
0.552304
550.82
13.2248
1.59613
554.519
21.8155
2.52392
558.929
28.0854
3.16839
562.994
30.1839
3.3331
565.374
27.481
2.95065
565.458
21.3706
2.22178
563.555
13.9566
1.37644
560.541
7.08635
0.631401
557.183
1.50719
0.0490525
553.948
-2.61912
-0.368855
551.063
-5.43493
-0.6461
548.62
-7.2012
-0.814318
546.615
-8.17195
-0.902476
545.011
-8.56979
-0.934066
543.758
-8.57184
-0.927169
542.801
-8.31274
-0.895236
542.087
-7.89239
-0.848108
541.572
-7.3821
-0.792727
541.216
-6.83366
-0.734175
540.983
-6.28027
-0.675725
540.848
-5.74628
-0.619639
540.787
-5.24506
-0.567208
540.783
-4.78264
-0.518999
540.826
-4.36478
-0.475612
540.905
-3.99252
-0.437123
541.017
-3.66448
-0.403544
541.161
-3.37693
-0.373808
541.345
-3.12846
-0.350953
-2.83458
-0.312647
548.002
2.96413
0.382386
550.233
9.85161
1.14218
553.433
16.7734
1.8422
557.209
21.9632
2.34602
560.787
24.0799
2.52653
563.245
22.6835
2.33971
564.091
18.6295
1.89467
563.419
13.2964
1.33282
561.72
7.99243
0.792879
559.482
3.4091
0.335279
557.092
-0.207188
-0.021633
554.79
-2.85122
-0.281201
552.694
-4.64781
-0.458087
550.858
-5.76579
-0.569522
549.289
-6.36971
-0.631603
547.975
-6.60036
-0.657643
546.892
-6.57082
-0.65828
546.01
-6.36855
-0.641756
545.301
-6.05876
-0.614251
544.738
-5.69017
-0.580479
544.296
-5.29507
-0.543652
543.955
-4.89863
-0.50626
543.696
-4.51609
-0.469889
543.504
-4.15591
-0.435462
543.369
-3.82607
-0.403875
543.283
-3.53043
-0.375563
543.241
-3.27121
-0.350826
543.242
-3.04863
-0.329396
543.296
-2.86958
-0.313189
-2.64782
-0.286789
547.706
1.96082
0.268624
549.597
7.11837
0.84243
552.399
12.5737
1.39801
555.773
16.7738
1.81558
559.109
18.7409
2.00233
561.702
18.1637
1.92697
563.122
15.5574
1.65238
563.325
11.8239
1.26953
562.579
7.86749
0.871196
561.223
4.25603
0.508724
559.547
1.2624
0.206496
557.766
-1.0408
-0.0295762
556.02
-2.69806
-0.203937
554.39
-3.80954
-0.325896
552.915
-4.48881
-0.405749
551.609
-4.84156
-0.452971
550.471
-4.95737
-0.475747
549.492
-4.90829
-0.480808
548.656
-4.74998
-0.473496
547.949
-4.52507
-0.458064
547.355
-4.2627
-0.437557
546.857
-3.98629
-0.414489
546.442
-3.71088
-0.390586
546.099
-3.44574
-0.366981
545.817
-3.19968
-0.344744
545.59
-2.97824
-0.324563
545.412
-2.78657
-0.306887
545.283
-2.62802
-0.29217
545.216
-2.52072
-0.281214
-2.38243
-0.265199
547.414
1.19255
0.190758
548.989
4.89716
0.647011
551.488
8.96074
1.11317
554.623
12.1615
1.47789
557.861
13.8353
1.66713
560.613
13.7532
1.65833
562.483
12.1978
1.49003
563.356
9.72803
1.22294
563.355
6.94647
0.921789
562.7
4.28121
0.629493
561.618
1.97425
0.370636
560.298
0.123392
0.156011
558.882
-1.26904
-0.0129659
557.466
-2.25378
-0.140103
556.111
-2.90238
-0.231424
554.851
-3.28816
-0.293429
553.703
-3.47694
-0.332288
552.672
-3.52371
-0.353435
551.756
-3.47233
-0.361443
550.948
-3.35718
-0.360117
550.24
-3.20238
-0.352327
549.622
-3.0277
-0.340528
549.084
-2.84636
-0.326517
548.617
-2.6671
-0.311555
548.212
-2.49828
-0.296822
547.863
-2.34596
-0.283187
547.565
-2.21735
-0.27114
547.316
-2.11738
-0.261797
547.128
-2.07767
-0.254778
-2.03236
-0.24783
547.168
0.612932
0.132216
548.495
3.04817
0.522385
550.792
5.72301
0.939892
553.785
7.89421
1.27487
556.999
9.15344
1.46813
559.918
9.33053
1.50348
562.167
8.54358
1.40526
563.579
7.10037
1.21532
564.183
5.36193
0.980964
564.113
3.6128
0.738137
563.541
2.03539
0.51055
562.632
0.720891
0.311425
561.524
-0.306711
0.145993
560.321
-1.06528
0.0142542
559.099
-1.59307
-0.086685
557.906
-1.93439
-0.161016
556.774
-2.13179
-0.213297
555.721
-2.22234
-0.247902
554.753
-2.23653
-0.268757
553.874
-2.1988
-0.27929
553.081
-2.12675
-0.282224
552.368
-2.03499
-0.279954
551.73
-1.93358
-0.274315
551.159
-1.82955
-0.266682
550.649
-1.72961
-0.258293
550.192
-1.63913
-0.250186
549.783
-1.56614
-0.242789
549.419
-1.51464
-0.237839
549.102
-1.52724
-0.233551
-1.57671
-0.234518
547.014
0.206256
0.0767002
548.162
1.44565
0.455213
550.298
2.73351
0.85274
553.173
3.84336
1.17599
556.384
4.56126
1.38113
559.479
4.78227
1.45394
562.086
4.52844
1.40782
563.993
3.9205
1.27253
565.152
3.11893
1.08414
565.627
2.26389
0.874006
565.541
1.45621
0.665407
565.033
0.755029
0.473433
564.236
0.184635
0.306188
563.259
-0.254606
0.166591
562.187
-0.575645
0.0541616
561.083
-0.797395
-0.0334823
559.991
-0.939995
-0.0996305
558.939
-1.02205
-0.147827
557.943
-1.05943
-0.181498
557.013
-1.06521
-0.203784
556.153
-1.04909
-0.217311
555.362
-1.0192
-0.224441
554.636
-0.98125
-0.227054
553.973
-0.939499
-0.226642
553.366
-0.897852
-0.224483
552.808
-0.859623
-0.221775
552.292
-0.831104
-0.218864
551.809
-0.814222
-0.217926
551.344
-0.846148
-0.215597
-0.960149
-0.223404
546.951
0.034749
547.971
0.425279
549.879
0.82587
552.559
1.16298
555.717
1.40308
558.971
1.52857
561.958
1.54202
564.416
1.46195
566.219
1.31576
567.352
1.13133
567.876
0.932347
567.894
0.736596
567.523
0.555788
566.872
0.396332
566.036
0.260724
565.089
0.148845
564.091
0.0589277
563.08
-0.0116426
562.086
-0.0657826
561.128
-0.106414
560.215
-0.136179
559.353
-0.1575
558.544
-0.172419
557.787
-0.182632
557.079
-0.189583
556.414
-0.194675
555.781
-0.198313
555.17
-0.203042
554.528
-0.20412
-0.21624
530.001
7.55793
14.2988
118.729
27.0518
50.395
120.196
122.309
123.301
-17.886
104.736
8.32259
23.5573
-11.2694
-19.7584
2.80533
13.1492
3.90164
3.64924
3.70288
3.81953
-2.83353
3.996
-0.847186
-5.45723
5.14195
-11.3028
3.99778
-0.923756
-4.7711
12.9999
2.80207
-17.2058
18.3641
-0.663078
-3.2973
1.92237
-21.2737
22.0854
-0.460643
-2.2734
1.33457
-24.1453
24.7256
-0.322626
-1.59224
0.945794
-26.2111
26.6334
-0.230145
-1.13799
0.686214
-27.7243
28.0374
-0.167803
-0.831509
0.509704
-28.8535
29.0899
-0.125099
-0.621084
0.387081
-29.7119
29.894
-0.0952931
-0.47383
-30.388
1.15872
122.771
-0.565575
-1.6778
-30.3992
-30.4443
-30.4552
502.467
-3.24863
-6.37719
-123.8
-123.937
-124.203
-124.331
507.574
-2.66564
-5.2408
511.81
-2.19797
-4.33472
515.354
-1.8312
-3.61776
518.346
-1.54062
-3.04814
520.893
-1.30769
-2.59073
523.077
-1.11848
-2.21847
524.96
-0.962698
-1.91046
526.585
-0.827226
-1.64582
527.99
-0.722906
-1.4206
-0.565573
-1.16924
533.361
12.7248
12.6707
122.575
43.6936
43.5053
125.2
125.147
127.149
-15.1618
-15.2852
112.618
20.2825
20.1222
-9.21162
-9.62655
-23.4937
20.3558
11.151
10.8252
-8.12203
4.0699
4.0088
-5.19195
-5.19506
10.4303
-15.4211
3.49748
3.42624
-4.06068
-4.12865
16.6867
2.43873
2.40619
-19.7982
20.6638
-2.83827
-2.87226
1.69937
1.68544
-22.8805
23.513
-2.001
-2.01633
1.20326
1.19696
-25.1536
25.6261
-1.43278
-1.43996
0.868444
0.865329
-26.8592
27.2164
-1.04367
-1.04731
0.639708
0.638028
-28.1536
28.4267
-0.774395
-0.776386
0.480902
0.479919
-29.1472
29.3585
-0.585444
-0.586623
0.368674
0.368055
-29.9195
30.0853
-0.45087
-0.451619
-30.5461
1.10418
1.1026
123.388
-1.59875
-1.60098
-30.599
-30.5991
-30.6504
504.582
-6.05367
-6.06111
-124.368
-124.748
-124.748
-125.105
509.253
-4.99964
-5.00553
513.168
-4.15458
-4.15935
516.47
-3.48108
-3.48506
519.276
-2.94277
-2.94616
521.679
-2.50841
-2.51135
523.75
-2.15347
-2.15605
525.543
-1.85867
-1.86096
527.099
-1.60504
-1.60708
528.429
-1.38744
-1.38925
-1.14742
-1.14901
537.797
14.9564
10.3192
128.106
48.2303
33.5035
130.483
129.559
131.544
-22.8634
-10.8653
123.361
23.7328
14.74
-6.26938
-13.043
51.7501
32.567
27.6685
29.1862
28.3532
29.8635
-118.619
-15.4887
-12.2246
-14.4054
-7.18463
-5.55165
-6.60288
-3.73556
-7.55388
-6.76487
7.28447
7.05776
3.71561
1.10965
1.78643
-2.323
3.08693
-2.60244
-1.05759
-20.466
7.34826
3.46873
-7.36429
-4.05842
21.0717
2.42449
5.02102
-22.5822
-2.85473
23.0365
-5.04502
1.74433
3.56931
-24.3122
24.7101
-3.64221
-2.06934
1.27664
2.60185
-25.8174
26.1591
-2.69377
-1.5264
0.946959
1.92626
-27.1025
27.3904
-2.02082
-1.14029
0.711381
1.44497
-28.1784
28.4171
-1.53314
-0.861841
0.541585
1.09864
-29.0668
29.2627
-1.17668
-0.659449
0.418086
0.84712
-29.7948
29.955
-0.914275
-0.511171
0.327381
0.662778
-30.3904
30.5219
-0.719938
-0.40168
-30.9015
0.992878
2.02157
124.666
-2.38313
-1.44292
-30.9817
-30.9468
-31.0248
508.387
-8.12269
-5.50224
-125.514
-126.049
-125.844
-126.351
512.319
-6.78306
-4.58599
515.675
-5.69555
-3.8426
518.548
-4.81457
-3.24317
521.022
-4.10042
-2.75879
523.165
-3.5177
-2.36442
525.029
-3.03701
-2.03974
526.658
-2.63419
-1.76835
528.083
-2.28652
-1.53383
529.315
-1.98125
-1.33151
-1.66418
-1.10739
542.039
14.9305
8.02949
534.344
45.5814
24.5991
131.675
86.2462
47.2585
-23.3639
-31.1878
-21.4352
-28.0691
134.22
132.917
134.821
-45.2795
-13.3875
133.741
38.5792
18.0216
-5.71539
-18.6718
-34.8241
36.4545
16.1038
6.65296
-1.42665
-8.1474
-12.5641
15.4514
5.47075
1.21817
0.84051
4.11187
-9.11399
8.15213
-3.76289
-0.227412
9.56876
-29.8267
2.95142
29.1094
-8.38428
-3.41863
1.97255
6.30367
-28.0573
-2.32445
27.9132
-5.80772
1.45527
4.5953
-27.804
27.8391
-4.35256
-1.73311
1.12055
3.50877
-28.0662
28.1705
-3.38978
-1.3439
0.874982
2.72546
-28.5348
28.6665
-2.67671
-1.05542
0.686932
2.13229
-29.0765
29.214
-2.12384
-0.8328
0.54152
1.67653
-29.6211
29.7525
-1.69004
-0.659394
0.429165
1.32575
-30.1315
30.2512
-1.35004
-0.52453
0.342451
1.05579
-30.5909
30.6968
-1.08426
-0.419855
0.275504
0.848373
-30.9947
31.087
-0.877487
-0.338719
-31.3694
0.852374
2.65371
126.331
-2.86461
-1.24232
-31.4604
-31.4057
-31.4945
513.253
-9.38376
-4.80699
-127.006
-127.608
-127.277
-127.852
516.317
-7.93938
-4.05519
518.998
-6.74872
-3.43526
521.343
-5.76607
-2.92772
523.399
-4.956
-2.51147
525.208
-4.28576
-2.16841
526.804
-3.72645
-1.88313
528.216
-3.25302
-1.64272
529.467
-2.84182
-1.43368
530.563
-2.4762
-1.25235
-2.10201
-1.04958
545.047
13.5816
6.0139
543.062
39.8613
17.5567
136.399
68.9051
30.6366
137.052
136.606
137.348
-32.3524
138.249
27.6335
9.78761
-42.7142
-9.23621
147.614
33.9498
12.3849
-141.998
-9.57286
-2.17997
-38.884
39.9259
2.52588
8.18475
-1.38057
-0.294624
-41.0676
40.6064
0.392533
1.74388
4.88277
3.74249
-148.859
141.18
-10.8591
-4.59082
5.2171
4.46991
4.81751
5.19313
-135.038
4.19171
130.797
-14.2861
-5.52004
4.91056
5.00197
4.74913
4.29368
3.62964
-127.847
125.957
-13.2787
-4.93985
4.1116
4.12023
3.95293
3.51965
3.04323
-124.685
123.915
-11.6355
-4.21752
3.38184
3.40272
3.27524
2.91194
2.55132
-123.454
123.254
-10.0477
-3.57651
2.80419
2.82902
2.72763
2.41335
2.13667
-123.233
123.354
-8.59705
-3.02111
2.32464
2.3533
2.26909
1.99497
1.78241
-123.585
123.891
-7.29758
-2.53879
1.92111
1.95145
1.88087
1.64421
1.48118
-124.262
124.663
-6.15386
-2.12326
1.58339
1.61275
1.5543
1.3534
1.22836
-125.1
125.539
-5.16727
-1.77064
1.30381
1.33065
1.28275
1.11487
1.01887
-125.993
126.433
-4.33033
-1.47569
1.07464
1.09835
1.05931
0.920877
0.847189
-126.876
127.296
-3.63127
-1.23222
0.889024
0.908772
0.877751
2.98809
-127.717
0.707321
128.119
-3.06219
-1.03454
518.571
-9.91526
-4.07276
-128.626
-129.232
-128.843
-129.425
520.789
-8.51003
-3.48439
522.787
-7.32577
-2.98944
524.583
-6.33247
-2.57676
526.195
-5.49836
-2.23229
527.641
-4.79744
-1.94434
528.94
-4.20509
-1.70211
530.109
-3.69839
-1.49612
531.161
-3.25508
-1.31581
532.098
-2.85729
-1.1586
-2.44899
-0.980453
546.941
11.5766
4.35994
548.019
33.2585
12.3851
553.633
54.4492
20.2833
566.984
71.4078
26.7469
-23.6596
-26.0046
-21.9919
-24.1118
146.919
74.1254
27.6564
-27.367
-25.9519
-25.3824
-24.01
145.419
146.388
145.148
-21.4083
-3.63075
149.028
17.9497
4.98043
-6.78817
-1.25402
-149.395
148.16
7.43932
1.83837
558.346
-4.1445
-3.56741
5.63257
7.97107
4.56036
6.77276
-145.352
-144.215
-144.92
-143.99
541.45
-18.1812
-8.39571
9.97163
10.1274
8.86737
9.15076
530.18
-24.1335
-9.92027
10.4353
10.0566
9.58843
9.32201
523.242
-25.7075
-9.95792
9.75104
9.27292
9.10818
8.70918
519.275
-25.1398
-9.40318
8.76479
8.29069
8.27082
7.85455
517.329
-23.5398
-8.60012
7.72246
7.28127
7.33895
6.94303
516.753
-21.4682
-7.7105
6.71549
6.31477
6.41919
6.05407
517.099
-19.2372
-6.81715
5.78108
5.4266
5.55371
5.22685
518.038
-17.0253
-5.96864
4.94182
4.63468
4.76813
4.48213
519.33
-14.9396
-5.19236
4.20604
3.94482
4.07355
3.82827
520.805
-13.0403
-4.50173
3.57327
3.35595
3.47194
3.26643
522.371
-11.3489
-3.89369
3.03999
2.84838
2.95876
2.76391
523.903
-9.85477
-3.37289
525.368
-8.58471
-2.92825
526.747
-7.49036
-2.54714
528.03
-6.55251
-2.22231
529.215
-5.74944
-1.94589
530.305
-5.06378
-1.71129
531.306
-4.47685
-1.51157
532.226
-3.96967
-1.3402
533.071
-3.5229
-1.1893
533.842
-3.11922
-1.05723
-2.69997
-0.905016
547.936
9.39834
3.08318
550.369
26.9152
8.66456
555.723
43.0016
13.7144
564.727
54.8181
17.4618
574.532
56.481
17.7594
577.901
44.3687
13.2472
-15.3065
-12.1593
-14.6159
-11.6325
572.697
24.9403
6.8553
-7.44487
-4.08634
-7.3476
-4.2184
561.709
6.1925
0.620526
550.911
-6.2906
-3.1119
542.254
-13.4371
-5.00187
535.985
-16.9678
-5.77998
531.721
-18.2649
-5.94261
529.001
-18.2399
-5.7615
527.427
-17.4436
-5.39896
526.692
-16.2325
-4.94778
526.558
-14.8247
-4.46542
526.841
-13.363
-3.98771
527.401
-11.9392
-3.53657
528.127
-10.6011
-3.12193
528.954
-9.37662
-2.74989
529.81
-8.28771
-2.42281
530.667
-7.32615
-2.13629
531.503
-6.48382
-1.88687
532.306
-5.74862
-1.67056
533.068
-5.11112
-1.48417
533.79
-4.55872
-1.32362
534.471
-4.07711
-1.18476
535.114
-3.65073
-1.06199
535.719
-3.26398
-0.954418
-2.85505
-0.827892
548.329
7.3413
2.14637
551.172
21.3094
6.04533
555.988
33.913
9.42873
562.647
42.876
11.7805
569.121
44.5475
12.0391
571.779
37.2423
9.67148
569.307
24.5313
5.97948
563.104
11.1958
2.19891
556.035
0.847954
-0.522158
549.629
-6.1422
-2.23036
544.437
-10.4035
-3.19335
540.497
-12.7043
-3.6536
537.63
-13.6582
-3.79063
535.646
-13.752
-3.7289
534.355
-13.3003
-3.54833
533.597
-12.5273
-3.30258
533.24
-11.5859
-3.0272
533.176
-10.58
-2.74565
533.321
-9.5739
-2.47196
533.611
-8.61209
-2.21551
533.99
-7.72073
-1.98153
534.423
-6.9111
-1.77102
534.885
-6.18543
-1.58366
535.359
-5.53983
-1.41804
535.834
-4.9716
-1.27316
536.304
-4.47373
-1.147
536.766
-4.03666
-1.03717
537.221
-3.649
-0.939978
537.667
-3.29789
-0.855121
-2.91772
-0.752913
548.368
5.54797
1.48336
551.164
16.564
4.2257
555.371
26.6735
6.59605
560.585
33.8989
8.21394
565.404
35.8009
8.51109
567.792
31.4554
7.24979
566.938
22.9478
5.06937
563.467
13.3089
2.68112
558.902
4.97132
0.726414
554.294
-1.31044
-0.673932
550.205
-5.63813
-1.59781
546.799
-8.34445
-2.14766
544.103
-9.85833
-2.43114
542.036
-10.5196
-2.53253
540.503
-10.5993
-2.51317
539.408
-10.3002
-2.41748
538.663
-9.7686
-2.27681
538.192
-9.10895
-2.11302
537.933
-8.39206
-1.9407
537.834
-7.66808
-1.77012
537.85
-6.968
-1.60752
537.95
-6.31229
-1.45657
538.109
-5.71035
-1.31886
538.31
-5.16445
-1.19464
538.539
-4.67706
-1.08431
538.789
-4.24589
-0.987242
539.055
-3.86584
-0.902376
539.338
-3.52982
-0.827547
539.638
-3.22894
-0.762925
-2.89318
-0.682983
548.214
4.04605
1.02345
550.76
12.6324
2.98109
554.393
20.8493
4.7156
558.685
26.8531
5.92177
562.645
28.9159
6.25792
565.003
26.45
5.59805
565.174
20.7204
4.27833
563.433
13.7059
2.72029
560.592
7.1255
1.31837
557.39
1.73486
0.20581
554.258
-2.2709
-0.604536
551.457
-5.03833
-1.15087
549.065
-6.7905
-1.48975
547.088
-7.77126
-1.67447
545.497
-8.19315
-1.74903
544.244
-8.22653
-1.74772
543.278
-8.00161
-1.6963
542.55
-7.61545
-1.61377
542.017
-7.13774
-1.51373
541.64
-6.61926
-1.40613
541.387
-6.09272
-1.29748
541.23
-5.58246
-1.19248
541.148
-5.10203
-1.09377
541.125
-4.65775
-1.00264
541.148
-4.25564
-0.920365
541.21
-3.89712
-0.847272
541.304
-3.58108
-0.783233
541.433
-3.30462
-0.727333
541.598
-3.06465
-0.680149
-2.78673
-0.620087
547.978
2.82983
0.710729
550.178
9.42943
2.14575
553.317
16.0839
3.46828
557.013
21.0786
4.42487
560.52
23.1515
4.78325
562.959
21.8873
4.46356
563.853
18.0704
3.65133
563.282
13.0009
2.60864
561.691
7.91948
1.58945
559.556
3.49037
0.715021
557.259
-0.0218928
0.0262845
555.026
-2.60571
-0.480336
552.981
-4.37387
-0.829955
551.179
-5.48492
-1.05402
549.632
-6.0957
-1.18253
548.33
-6.34153
-1.24066
547.251
-6.33164
-1.24874
546.367
-6.15089
-1.2226
545.652
-5.86284
-1.17426
545.081
-5.51511
-1.11289
544.628
-5.13939
-1.04479
544.275
-4.76056
-0.97498
544.004
-4.39382
-0.90662
543.8
-4.04771
-0.841608
543.652
-3.73031
-0.781768
543.553
-3.44568
-0.728053
543.499
-3.19615
-0.68098
543.488
-2.98266
-0.640652
543.529
-2.81039
-0.608033
-2.60224
-0.565395
547.686
1.87291
0.499898
549.54
6.82615
1.59132
552.294
12.0798
2.64859
555.606
16.1346
3.44747
558.889
18.0567
3.81402
561.461
17.551
3.69164
562.903
15.0926
3.18839
563.164
11.5352
2.47395
562.498
7.73703
1.71959
561.22
4.25029
1.027
559.614
1.34576
0.444624
557.892
-0.899701
-0.0140176
556.194
-2.5238
-0.355633
554.6
-3.61992
-0.596901
553.151
-4.29608
-0.756896
551.864
-4.65372
-0.853496
550.738
-4.77932
-0.90229
549.766
-4.7427
-0.916188
548.933
-4.59802
-0.905521
548.225
-4.38691
-0.878545
547.627
-4.13788
-0.841209
547.125
-3.87397
-0.798475
546.704
-3.61004
-0.753759
546.354
-3.35535
-0.709325
546.065
-3.11869
-0.667311
545.829
-2.90569
-0.629102
545.643
-2.7215
-0.595627
545.506
-2.57
-0.567791
545.43
-2.46778
-0.546936
-2.34032
-0.519385
547.4
1.13723
0.354654
548.948
4.69733
1.22837
551.405
8.61454
2.12148
554.487
11.7082
2.82171
557.678
13.3413
3.19127
560.405
13.2946
3.18822
562.28
11.8286
2.87943
563.186
9.47342
2.37873
563.235
6.80241
1.80685
562.637
4.23019
1.24748
561.611
1.99424
0.748748
560.341
0.193127
0.332655
558.969
-1.16746
0.00309144
557.589
-2.1341
-0.24639
556.263
-2.7746
-0.42685
555.026
-3.15919
-0.55051
553.895
-3.35132
-0.629096
552.876
-3.40423
-0.673014
551.968
-3.36055
-0.691087
551.165
-3.25378
-0.690689
550.46
-3.10749
-0.677405
549.843
-2.94107
-0.656047
549.304
-2.76753
-0.630138
548.835
-2.59553
-0.602179
548.427
-2.43335
-0.574499
548.074
-2.28709
-0.548783
547.771
-2.16389
-0.526189
547.517
-2.06896
-0.508214
547.324
-2.03282
-0.496484
-1.99516
-0.481927
547.159
0.58186
0.244432
548.463
2.91939
0.996645
550.722
5.49517
1.80048
553.667
7.59295
2.44508
556.834
8.81931
2.82216
559.723
9.01
2.89997
561.963
8.27232
2.72065
563.391
6.89825
2.36316
564.026
5.23131
1.91656
563.998
3.54609
1.45064
563.471
2.02034
1.0116
562.605
0.74428
0.625656
561.537
-0.256842
0.303689
560.37
-0.998665
0.0462944
559.177
-1.5171
-0.151711
558.009
-1.85443
-0.298181
556.898
-2.05154
-0.401786
555.861
-2.14421
-0.470916
554.907
-2.16201
-0.51315
554.038
-2.12871
-0.535131
553.252
-2.06147
-0.542148
552.544
-1.97458
-0.538877
551.909
-1.8779
-0.528904
551.34
-1.77839
-0.514927
550.831
-1.68266
-0.499394
550.374
-1.59605
-0.484235
549.964
-1.52659
-0.470706
549.596
-1.47812
-0.460654
549.279
-1.49328
-0.455684
-1.54649
-0.452309
547.007
0.193194
0.143149
548.135
1.3789
0.868241
550.235
2.61393
1.63395
553.064
3.68236
2.2577
556.228
4.37811
2.65858
559.284
4.59946
2.80801
561.871
4.36475
2.72832
563.778
3.78853
2.47527
564.954
3.023
2.11701
565.457
2.20276
1.71411
565.405
1.42527
1.31183
564.935
0.748192
0.93982
564.174
0.195771
0.6144
563.231
-0.230905
0.341783
562.191
-0.5438
0.121471
561.114
-0.760802
-0.0508648
560.046
-0.901139
-0.181415
559.013
-0.982666
-0.276949
558.035
-1.0207
-0.344063
557.119
-1.02786
-0.388846
556.27
-1.01355
-0.416409
555.488
-0.985687
-0.431358
554.77
-0.949841
-0.43738
554.113
-0.910179
-0.437387
553.51
-0.870553
-0.433951
552.956
-0.834152
-0.429229
552.442
-0.807496
-0.424561
551.96
-0.791421
-0.421948
551.499
-0.825867
-0.421996
-0.937707
-0.428476
546.944
0.0676052
547.947
0.800644
549.822
1.56505
552.456
2.2113
555.563
2.67395
558.77
2.92098
561.722
2.9553
564.162
2.81046
565.963
2.53751
567.108
2.18941
567.654
1.8114
567.701
1.4376
567.362
1.09081
566.743
0.783783
565.939
0.521717
565.022
0.304736
564.05
0.129723
563.064
-0.00814812
562.092
-0.114351
561.152
-0.19442
560.256
-0.253402
559.408
-0.295943
558.612
-0.325988
557.866
-0.346804
557.167
-0.361259
556.51
-0.371865
555.885
-0.380082
555.279
-0.388786
554.644
-0.394961
-0.411465
535.662
6.00886
16.4585
126.093
20.0106
54.3685
126.842
129.112
129.631
-26.2131
119.567
5.86138
26.8779
-14.6614
-27.1644
25.5466
1.7227
14.5564
0.61969
1.31097
0.226131
-2.15675
-17.247
8.65776
-0.94995
-8.72699
18.2662
5.88264
-20.5394
-0.661165
21.1841
-5.86613
4.08012
-22.9216
23.4449
-0.472388
-4.13106
2.91004
-24.8672
25.2945
-0.342378
-2.995
2.11464
-26.4492
26.7945
-0.251351
-2.20861
1.56173
-27.7239
28.001
-0.187053
-1.65172
1.17244
-28.7453
28.967
-0.141264
-1.25287
0.894871
-29.563
29.7407
-0.108326
-0.96426
0.694464
-30.2196
30.363
-0.0843872
-0.75352
-30.7675
2.11849
124.14
-0.507889
-2.49232
-30.777
-30.8521
-30.8612
506.538
-2.93735
-8.52864
-125.023
-125.141
-125.589
-125.696
510.824
-2.43428
-7.09174
514.445
-2.0258
-5.93079
517.525
-1.70102