/*--------------------------------*- C++ -*----------------------------------*\
  =========                 |
  \\      /  F ield         | OpenFOAM: The Open Source CFD Toolbox
   \\    /   O peration     | Website:  https://openfoam.org
    \\  /    A nd           | Version:  10
     \\/     M anipulation  |
\*---------------------------------------------------------------------------*/
FoamFile
{
    format      ascii;
    class       volVectorField;
    location    "700";
    object      U;
}
// * * * * * * * * * * * * * * * * * * * * * * * * * * * * * * * * * * * * * //

dimensions      [0 1 -1 0 0 0 0];

internalField   nonuniform List<vector> 
27507
(
(13.8851 0.0864131 0.0861196)
(13.063 0.333816 0.334672)
(10.9972 0.373691 0.371341)
(4.968 0.522087 0.493824)
(-0.233559 -0.0977064 -0.111888)
(3.06117 -0.153803 -0.160509)
(6.01977 -0.117129 -0.119562)
(8.11118 -0.0810523 -0.0819395)
(9.5431 -0.055654 -0.0560071)
(10.5331 -0.0388902 -0.0390484)
(11.2334 -0.0278636 -0.0279431)
(11.7417 -0.0204862 -0.0205303)
(12.1202 -0.0154401 -0.0154669)
(12.4461 -0.0230318 -0.0230653)
(12.7245 -0.0340929 -0.0341365)
(12.8843 -0.0276718 -0.027705)
(13.0126 -0.0226188 -0.022645)
(13.1188 -0.0187056 -0.018727)
(13.2075 -0.0156446 -0.0156625)
(13.2823 -0.0132107 -0.013226)
(13.3458 -0.0112469 -0.0112602)
(13.4001 -0.0096445 -0.00965623)
(13.4475 -0.00825143 -0.0082618)
(13.4852 -0.00719017 -0.00719933)
(13.5302 -0.00557512 -0.0055831)
(13.8905 0.229204 0.0752858)
(13.2543 0.846732 0.279889)
(11.6562 1.60507 0.315938)
(7.19512 3.72485 0.425174)
(1.58745 -1.27364 -0.138317)
(4.96076 -1.29967 -0.146012)
(7.28419 -0.928627 -0.10439)
(8.88331 -0.643616 -0.0720215)
(10.0122 -0.450067 -0.0501917)
(10.8253 -0.320697 -0.0356909)
(11.422 -0.233602 -0.0259669)
(11.8683 -0.174011 -0.0193289)
(12.2084 -0.132455 -0.0147101)
(12.519 -0.109929 -0.02195)
(12.7899 -0.0974271 -0.0323251)
(12.9351 -0.0795859 -0.0263864)
(13.053 -0.0654193 -0.0216818)
(13.1515 -0.05432 -0.0180092)
(13.2345 -0.045581 -0.0151184)
(13.3048 -0.0386009 -0.0128075)
(13.3649 -0.0329457 -0.0109344)
(13.4165 -0.028302 -0.00939934)
(13.4617 -0.0242979 -0.00806498)
(13.4981 -0.0210225 -0.00704438)
(13.5411 -0.0169251 -0.00545891)
(13.9144 0.304842 0.0602466)
(13.5012 1.03378 0.204453)
(12.6283 2.05531 0.222958)
(10.7387 4.52286 0.269664)
(0.179822 0.947791 -0.0975725)
(7.08123 -2.55356 -0.151832)
(8.49048 -1.77935 -0.103769)
(9.47834 -1.25607 -0.0738942)
(10.2673 -0.905892 -0.0533266)
(10.9027 -0.664067 -0.0390192)
(11.4124 -0.493964 -0.0289717)
(11.8199 -0.372923 -0.0218437)
(12.1459 -0.285874 -0.0167296)
(12.4078 -0.222651 -0.0130229)
(12.6687 -0.178365 -0.0196978)
(12.9066 -0.147129 -0.0291652)
(13.0271 -0.121442 -0.0240593)
(13.1272 -0.100858 -0.0199603)
(13.2122 -0.0844444 -0.0167145)
(13.2849 -0.0713482 -0.0141279)
(13.3472 -0.0607795 -0.0120394)
(13.4011 -0.0521418 -0.0103323)
(13.4478 -0.0449804 -0.00892324)
(13.4889 -0.0388215 -0.00769306)
(13.5224 -0.0335047 -0.00674812)
(13.5624 -0.0278097 -0.0052562)
(13.9535 0.31911 0.0460412)
(13.7103 1.02486 0.144913)
(13.4551 2.08109 0.300387)
(13.149 3.70572 0.28081)
(13.9637 6.36374 0.261072)
(4.95503 2.9298 0.110247)
(8.83185 -2.62697 -0.250398)
(11.2899 -3.18547 -0.132711)
(10.9904 -2.1034 -0.0846973)
(11.0481 -1.53648 -0.0612333)
(11.2506 -1.16839 -0.0465536)
(11.5118 -0.903171 -0.035959)
(11.7846 -0.703496 -0.0279579)
(12.0441 -0.551022 -0.0218574)
(12.2787 -0.434273 -0.0172004)
(12.4847 -0.344836 -0.0136434)
(12.6624 -0.276454 -0.0109267)
(12.8608 -0.222237 -0.0168768)
(13.0531 -0.17999 -0.0252969)
(13.1454 -0.150576 -0.0211502)
(13.2243 -0.126636 -0.0177666)
(13.293 -0.107175 -0.0150384)
(13.3529 -0.0913801 -0.0128278)
(13.4051 -0.078455 -0.0110191)
(13.4509 -0.0677681 -0.00952432)
(13.4912 -0.0588152 -0.00827921)
(13.5271 -0.0510744 -0.00718474)
(13.5567 -0.0442689 -0.00633954)
(13.5926 -0.0372134 -0.00498875)
(13.9815 0.298408 0.0337793)
(13.882 0.902963 0.0996697)
(13.841 1.64787 0.180783)
(14.1098 2.46659 0.270883)
(14.7485 3.26873 0.195763)
(16.3385 3.04566 0.0926626)
(17.0776 0.402367 0.00650737)
(14.7786 -1.36763 -0.0846786)
(13.4099 -1.4878 -0.0892409)
(12.8085 -1.27477 -0.075592)
(12.565 -1.06616 -0.0625754)
(12.4909 -0.892252 -0.0519971)
(12.5067 -0.74516 -0.0432354)
(12.5727 -0.619588 -0.0358459)
(12.6648 -0.513153 -0.0296283)
(12.7675 -0.424131 -0.0244553)
(12.8712 -0.3506 -0.0202024)
(12.9703 -0.290418 -0.016747)
(13.0637 -0.2422 -0.0139681)
(13.2106 -0.196673 -0.0212877)
(13.2757 -0.166972 -0.0180672)
(13.3337 -0.142349 -0.0153916)
(13.3857 -0.121938 -0.0131895)
(13.4321 -0.105055 -0.0113704)
(13.4735 -0.0910157 -0.00985908)
(13.5106 -0.0792538 -0.00859431)
(13.5436 -0.0692901 -0.00753037)
(13.5736 -0.0606087 -0.00658787)
(13.5987 -0.0528916 -0.00585666)
(13.6298 -0.0449079 -0.00467054)
(13.9972 0.259372 0.0241601)
(13.9855 0.753486 0.0689702)
(14.0308 1.27494 0.115828)
(14.2671 1.74094 0.158623)
(14.7671 1.80802 0.163398)
(15.253 1.60295 0.0756809)
(15.3441 0.553966 0.0240536)
(14.5446 -0.289694 -0.0324584)
(13.9871 -0.572517 -0.0569727)
(13.6088 -0.659327 -0.061768)
(13.3815 -0.652022 -0.0592965)
(13.2521 -0.606842 -0.0543228)
(13.1868 -0.547982 -0.0485805)
(13.1648 -0.485597 -0.0427731)
(13.1717 -0.424676 -0.0372409)
(13.197 -0.367972 -0.0321745)
(13.2335 -0.316899 -0.0276652)
(13.2755 -0.271987 -0.0237469)
(13.3202 -0.23258 -0.0203754)
(13.3647 -0.199885 -0.0175083)
(13.4069 -0.172416 -0.0151004)
(13.4464 -0.149036 -0.0130601)
(13.4831 -0.129273 -0.0113375)
(13.5169 -0.112598 -0.00988517)
(13.5478 -0.0984993 -0.00865915)
(13.5761 -0.0865242 -0.00761967)
(13.602 -0.0762672 -0.00673681)
(13.6259 -0.0672586 -0.005949)
(13.6462 -0.0591817 -0.00533593)
(13.6723 -0.0507488 -0.00432388)
(14.0057 0.213741 0.0169301)
(14.0388 0.611771 0.0475915)
(14.1217 0.990282 0.0766034)
(14.3161 1.28579 0.0997351)
(14.6134 1.31399 0.100155)
(14.8424 0.991468 0.0728542)
(14.8124 0.487601 0.0339854)
(14.5389 0.0261797 -0.00184424)
(14.2095 -0.247283 -0.0216232)
(13.9398 -0.382688 -0.0306714)
(13.7446 -0.43571 -0.0337711)
(13.6113 -0.443046 -0.0336798)
(13.5255 -0.425815 -0.031968)
(13.475 -0.3959 -0.0294749)
(13.4502 -0.360158 -0.026657)
(13.4438 -0.322743 -0.0237898)
(13.4502 -0.286203 -0.0210384)
(13.465 -0.252089 -0.0184996)
(13.4851 -0.220839 -0.0162094)
(13.5081 -0.193292 -0.0141876)
(13.5324 -0.169269 -0.0124372)
(13.5566 -0.14836 -0.0109141)
(13.5802 -0.130285 -0.00959781)
(13.6028 -0.114727 -0.00846622)
(13.6243 -0.101352 -0.00749565)
(13.6445 -0.0898406 -0.00666231)
(13.6634 -0.0798802 -0.00594845)
(13.6815 -0.071072 -0.00530795)
(13.6972 -0.0631264 -0.00480912)
(13.7181 -0.0546967 -0.00397023)
(14.0094 0.168991 0.0116893)
(14.0611 0.485456 0.0327448)
(14.1536 0.773402 0.0515407)
(14.3109 0.982728 0.0651379)
(14.5107 1.01151 0.0658037)
(14.6557 0.814861 0.0516696)
(14.6554 0.495594 0.0302574)
(14.5148 0.174826 0.00911823)
(14.3156 -0.0544883 -0.00528567)
(14.1275 -0.197271 -0.0139532)
(13.9726 -0.276506 -0.0185452)
(13.8536 -0.312916 -0.0204746)
(13.7667 -0.322123 -0.0207806)
(13.7062 -0.314686 -0.020125)
(13.6663 -0.297516 -0.0189199)
(13.6425 -0.275166 -0.0174358)
(13.6306 -0.250637 -0.0158478)
(13.6276 -0.22592 -0.0142697)
(13.6308 -0.202133 -0.0127644)
(13.6385 -0.179963 -0.0113796)
(13.6489 -0.159941 -0.010134)
(13.6608 -0.14205 -0.00902015)
(13.6737 -0.126225 -0.00803526)
(13.6869 -0.112336 -0.00717188)
(13.7001 -0.100208 -0.00641961)
(13.7132 -0.0896396 -0.00576601)
(13.7259 -0.0804191 -0.00520228)
(13.7385 -0.0722294 -0.00469532)
(13.7498 -0.0648258 -0.00430138)
(13.7659 -0.0567972 -0.0036273)
(14.01 0.12909 0.00800861)
(14.0656 0.378293 0.0226229)
(14.1545 0.604833 0.0354373)
(14.2838 0.766289 0.0443217)
(14.4309 0.800936 0.0455105)
(14.5383 0.684344 0.0380207)
(14.5569 0.473762 0.0257207)
(14.4868 0.245066 0.012613)
(14.3669 0.058841 0.00233727)
(14.2382 -0.0742666 -0.00485087)
(14.1205 -0.160659 -0.00942308)
(14.0213 -0.211003 -0.0120218)
(13.9421 -0.235792 -0.0132562)
(13.8811 -0.243209 -0.0135795)
(13.8356 -0.239296 -0.0133135)
(13.803 -0.228364 -0.012686)
(13.7806 -0.213435 -0.0118555)
(13.7664 -0.196612 -0.0109314)
(13.7583 -0.179254 -0.00998384)
(13.755 -0.162262 -0.00906214)
(13.7551 -0.146283 -0.00819748)
(13.7577 -0.131568 -0.00740064)
(13.762 -0.118234 -0.00667835)
(13.7675 -0.106304 -0.0060322)
(13.7738 -0.0957284 -0.0054603)
(13.7806 -0.0864118 -0.00495799)
(13.7878 -0.0782354 -0.00452268)
(13.7955 -0.0709701 -0.00413229)
(13.8029 -0.064435 -0.00383079)
(13.8143 -0.057145 -0.00330847)
(14.0087 0.0953874 0.00548656)
(14.0605 0.289941 0.0158111)
(14.1407 0.472081 0.0249907)
(14.2491 0.603548 0.0313759)
(14.3665 0.642922 0.0329243)
(14.4567 0.575424 0.0290157)
(14.4894 0.434727 0.0216924)
(14.4615 0.269445 0.0132643)
(14.3925 0.121259 0.00591866)
(14.3071 0.00488245 0.000210273)
(14.2206 -0.078468 -0.00385856)
(14.1414 -0.133308 -0.00653237)
(14.0731 -0.165953 -0.00813655)
(14.0163 -0.182324 -0.00895965)
(13.9704 -0.187275 -0.00923425)
(13.9342 -0.184553 -0.00913765)
(13.9062 -0.176931 -0.00880138)
(13.8852 -0.166434 -0.0083216)
(13.8697 -0.154467 -0.00776549)
(13.8588 -0.142013 -0.00718094)
(13.8514 -0.129762 -0.00660214)
(13.8469 -0.118107 -0.00604781)
(13.8445 -0.107279 -0.00553025)
(13.8438 -0.0974028 -0.0050566)
(13.8443 -0.0885204 -0.00463037)
(13.8459 -0.080623 -0.00425213)
(13.8484 -0.0736755 -0.00392349)
(13.8518 -0.0675367 -0.00363178)
(13.8554 -0.0621166 -0.00340889)
(13.8626 -0.0558505 -0.00302286)
(14.0063 0.0679129 0.00379097)
(14.0507 0.218145 0.0112813)
(14.1208 0.365656 0.0181804)
(14.214 0.47503 0.0231342)
(14.3144 0.516339 0.0248627)
(14.397 0.479691 0.0229398)
(14.4408 0.385586 0.0184808)
(14.4407 0.266036 0.0129009)
(14.4066 0.150362 0.00758515)
(14.3532 0.0528178 0.00309926)
(14.2922 -0.0221683 -0.00037814)
(14.231 -0.0755483 -0.00289327)
(14.1742 -0.110675 -0.00459641)
(14.1237 -0.131543 -0.00566002)
(14.0802 -0.141848 -0.00624364)
(14.0434 -0.144634 -0.00647804)
(14.0129 -0.142292 -0.00646742)
(13.9879 -0.136645 -0.00629243)
(13.9677 -0.129021 -0.0060131)
(13.9516 -0.12038 -0.00567411)
(13.9389 -0.11141 -0.00530873)
(13.929 -0.102558 -0.00493875)
(13.9214 -0.0941122 -0.00457945)
(13.9158 -0.0862543 -0.0042412)
(13.9117 -0.0790894 -0.00393085)
(13.9089 -0.0726726 -0.00365253)
(13.9072 -0.0670409 -0.00341043)
(13.9067 -0.0621377 -0.00320013)
(13.9071 -0.0580037 -0.00304175)
(13.9103 -0.0530099 -0.0027759)
(14.0033 0.0461562 0.0026597)
(14.039 0.160173 0.0083048)
(14.0998 0.278336 0.0137575)
(14.1821 0.368465 0.0178449)
(14.2728 0.408433 0.0196445)
(14.3529 0.39127 0.0188506)
(14.4059 0.329528 0.0161035)
(14.4257 0.244368 0.0123106)
(14.4166 0.156417 0.00839213)
(14.3876 0.0778539 0.00484398)
(14.3471 0.0140369 0.00189757)
(14.3017 -0.0340646 -0.000394626)
(14.2559 -0.0678875 -0.00208053)
(14.2123 -0.0899196 -0.00325404)
(14.1724 -0.102789 -0.00401747)
(14.1368 -0.108847 -0.00446403)
(14.1056 -0.110041 -0.00467396)
(14.0785 -0.107918 -0.00471317)
(14.0554 -0.10365 -0.00463366)
(14.0358 -0.0981068 -0.00447592)
(14.0192 -0.0919278 -0.00427124)
(14.0053 -0.0855541 -0.00404221)
(13.9937 -0.0792872 -0.00380554)
(13.9841 -0.0733329 -0.00357342)
(13.9762 -0.0678301 -0.00335476)
(13.9697 -0.0628762 -0.00315618)
(13.9645 -0.0585683 -0.00298312)
(13.9606 -0.054924 -0.00283867)
(13.958 -0.0521694 -0.00273109)
(13.9573 -0.0486748 -0.00256995)
(13.9999 0.0293988 0.0018884)
(14.0272 0.113315 0.00636836)
(14.0805 0.204572 0.0109307)
(14.1555 0.275848 0.0144902)
(14.241 0.311419 0.0163183)
(14.3213 0.306278 0.0161942)
(14.3822 0.267788 0.0145092)
(14.4171 0.209481 0.0118671)
(14.427 0.145494 0.00890816)
(14.417 0.0853981 0.00604881)
(14.3934 0.0342894 0.0035252)
(14.3615 -0.0060166 0.00143948)
(14.3258 -0.0358024 -0.000197662)
(14.289 -0.0564264 -0.00142556)
(14.2533 -0.0696245 -0.0023044)
(14.2196 -0.0770984 -0.00289828)
(14.1887 -0.0803377 -0.0032677)
(14.1608 -0.0805702 -0.00346592)
(14.1359 -0.0787593 -0.0035375)
(14.1139 -0.0756394 -0.00351877)
(14.0946 -0.0717598 -0.00343899)
(14.0777 -0.0675153 -0.00332062)
(14.0629 -0.0631858 -0.00318104)
(14.0501 -0.0589725 -0.00303356)
(14.039 -0.0550235 -0.00288837)
(14.0294 -0.0514567 -0.00275393)
(14.0212 -0.0484141 -0.00263582)
(14.0141 -0.0459678 -0.00254423)
(14.0087 -0.0445856 -0.00247445)
(14.004 -0.0428012 -0.00240443)
(13.997 0.0167504 0.00131084)
(14.0174 0.0750775 0.00514105)
(14.0651 0.140174 0.00921852)
(14.1354 0.192037 0.0124808)
(14.2182 0.220674 0.0143492)
(14.2998 0.222411 0.0146642)
(14.3679 0.200904 0.0136739)
(14.4151 0.164152 0.0117945)
(14.4403 0.121199 0.00949269)
(14.446 0.0788748 0.00711818)
(14.4367 0.0413612 0.00489974)
(14.4167 0.0105883 0.00296413)
(14.3901 -0.013092 0.00136001)
(14.36 -0.0302705 8.55836e-05)
(14.3285 -0.0419674 -0.00088854)
(14.2974 -0.0492965 -0.00160394)
(14.2674 -0.0532945 -0.00210537)
(14.2394 -0.0548502 -0.00243571)
(14.2135 -0.0546839 -0.00263326)
(14.1899 -0.0533577 -0.00273085)
(14.1685 -0.0512999 -0.00275596)
(14.1492 -0.0488278 -0.00273082)
(14.132 -0.0461721 -0.00267319)
(14.1166 -0.0435054 -0.00259727)
(14.1028 -0.0409618 -0.00251406)
(14.0904 -0.0386578 -0.00243368)
(14.0794 -0.0367578 -0.00236082)
(14.0694 -0.0353567 -0.00231264)
(14.0613 -0.0351746 -0.00226848)
(14.0519 -0.0352266 -0.00227744)
(13.996 0.00671711 0.000762735)
(14.0112 0.0432443 0.00448848)
(14.0544 0.0821814 0.00837379)
(14.1206 0.114181 0.0115205)
(14.2013 0.133848 0.0135044)
(14.2849 0.138485 0.014186)
(14.36 0.129102 0.0137045)
(14.4187 0.109686 0.0123575)
(14.4579 0.0851903 0.0105018)
(14.4781 0.0597823 0.0084432)
(14.4822 0.0363189 0.00640702)
(14.4737 0.0163661 0.00453876)
(14.4562 0.000466665 0.00291529)
(14.4328 -0.011507 0.00156337)
(14.4061 -0.0200363 0.000477006)
(14.3779 -0.0257345 -0.000367978)
(14.3496 -0.0292175 -0.00100414)
(14.322 -0.0310368 -0.00146636)
(14.2957 -0.0316517 -0.00178813)
(14.271 -0.0314286 -0.00199973)
(14.2481 -0.0306495 -0.00212742)
(14.227 -0.0295288 -0.00219338)
(14.2076 -0.028222 -0.00221577)
(14.1898 -0.0268531 -0.0022098)
(14.1736 -0.0255141 -0.00218696)
(14.1587 -0.024296 -0.00215902)
(14.1451 -0.0233549 -0.00212933)
(14.132 -0.0227185 -0.00212058)
(14.1214 -0.0233142 -0.00209433)
(14.1056 -0.0251251 -0.00217115)
(13.9982 0.000719355 0.00033392)
(14.0095 0.0169017 0.00418349)
(14.0463 0.0346566 0.0081385)
(14.1063 0.0508767 0.0114429)
(14.1831 0.062892 0.0137839)
(14.2677 0.0688506 0.0149944)
(14.3499 0.0682862 0.0151007)
(14.4213 0.0622084 0.0142899)
(14.4765 0.0525046 0.0128362)
(14.5141 0.0411122 0.0110147)
(14.5348 0.0296062 0.0090569)
(14.541 0.0190565 0.00713634)
(14.5357 0.0100414 0.00536646)
(14.522 0.0027575 0.00380892)
(14.5023 -0.00284383 0.00248716)
(14.479 -0.00695068 0.00139889)
(14.4538 -0.00981142 0.000526135)
(14.4278 -0.0116812 -0.000157236)
(14.402 -0.0127923 -0.000680178)
(14.3769 -0.013342 -0.00107134)
(14.3529 -0.0134898 -0.0013571)
(14.3301 -0.0133618 -0.0015608)
(14.3087 -0.0130538 -0.0017023)
(14.2887 -0.012641 -0.00179878)
(14.27 -0.0121841 -0.00186355)
(14.2524 -0.0117282 -0.00191061)
(14.2361 -0.0113735 -0.00194327)
(14.2194 -0.0111168 -0.00198926)
(14.2067 -0.0113493 -0.00199503)
(14.1806 -0.01313 -0.00211165)
(13.8905 0.0751592 0.229197)
(13.2544 0.278842 0.847811)
(11.6551 0.312674 1.60821)
(7.23089 0.404078 3.75323)
(1.62709 -0.121397 -1.40525)
(4.99297 -0.141535 -1.34549)
(7.29547 -0.10269 -0.944434)
(8.88707 -0.0713516 -0.649663)
(10.0136 -0.0499054 -0.452639)
(10.8259 -0.0355553 -0.321911)
(11.4223 -0.0258959 -0.234236)
(11.8685 -0.0192883 -0.174373)
(12.2085 -0.0146849 -0.132678)
(12.519 -0.0219181 -0.110085)
(12.79 -0.0322834 -0.0975491)
(12.9352 -0.0263542 -0.0796802)
(13.0531 -0.0216562 -0.0654943)
(13.1516 -0.0179882 -0.0543816)
(13.2345 -0.0151007 -0.0456329)
(13.3048 -0.0127923 -0.0386455)
(13.3649 -0.0109213 -0.0329847)
(13.4165 -0.00938773 -0.0283364)
(13.4617 -0.00805472 -0.0243285)
(13.4981 -0.00703532 -0.0210495)
(13.5411 -0.00545102 -0.0169488)
(13.9021 0.202498 0.20271)
(13.3901 0.72082 0.722099)
(12.1374 1.37622 1.37978)
(8.8448 3.13811 3.12928)
(3.82621 -1.39327 -1.40826)
(6.58738 -1.15411 -1.17548)
(8.29384 -0.812135 -0.822481)
(9.50621 -0.570547 -0.575098)
(10.4031 -0.406522 -0.40862)
(11.0772 -0.294816 -0.295863)
(11.5895 -0.217935 -0.218504)
(11.9833 -0.164258 -0.164592)
(12.29 -0.126193 -0.126405)
(12.5865 -0.104789 -0.104938)
(12.8506 -0.0924176 -0.0925347)
(12.9828 -0.075899 -0.0759905)
(13.0914 -0.0627004 -0.0627737)
(13.1828 -0.0522805 -0.052341)
(13.2604 -0.0440255 -0.0440767)
(13.3265 -0.037398 -0.037442)
(13.3834 -0.0320052 -0.0320437)
(13.4325 -0.027559 -0.027593)
(13.4755 -0.0237214 -0.0237516)
(13.5106 -0.0205651 -0.0205918)
(13.5519 -0.0165933 -0.0166166)
(13.9295 0.274272 0.16452)
(13.5813 0.910249 0.545302)
(12.8815 1.80159 0.998781)
(11.839 4.05987 2.28152)
(9.33108 7.01532 3.79669)
(4.46734 -2.69114 -1.36311)
(8.48801 -2.22323 -1.15971)
(9.34178 -1.54877 -0.815762)
(10.0409 -1.11288 -0.590131)
(10.6462 -0.817136 -0.433412)
(11.1615 -0.608752 -0.322406)
(11.5919 -0.459136 -0.242813)
(11.9469 -0.350644 -0.185235)
(12.2376 -0.271329 -0.143226)
(12.4755 -0.212934 -0.112319)
(12.7262 -0.170573 -0.094426)
(12.9592 -0.140008 -0.0837338)
(13.0693 -0.1161 -0.0694453)
(13.1617 -0.0968448 -0.0578835)
(13.2408 -0.0813901 -0.0486379)
(13.3088 -0.0689887 -0.041228)
(13.3675 -0.0589349 -0.0352218)
(13.4185 -0.050686 -0.0302956)
(13.4629 -0.043823 -0.0262068)
(13.5021 -0.0379107 -0.0226616)
(13.5345 -0.0327743 -0.0197304)
(13.5728 -0.0273223 -0.0160081)
(13.963 0.291989 0.126929)
(13.7643 0.921763 0.395807)
(13.5842 1.81911 0.780493)
(13.4058 3.17882 1.22989)
(14.252 5.24031 1.89404)
(17.7625 6.36542 1.90184)
(14.3062 -4.09296 -1.41041)
(11.9198 -2.67751 -0.96616)
(11.4342 -1.83955 -0.661514)
(11.3913 -1.37387 -0.492778)
(11.5161 -1.06151 -0.380875)
(11.7144 -0.831503 -0.298135)
(11.9379 -0.65515 -0.23453)
(12.16 -0.518252 -0.185221)
(12.3667 -0.411887 -0.147011)
(12.5521 -0.329371 -0.117448)
(12.7147 -0.265608 -0.0945999)
(12.9069 -0.213353 -0.0811381)
(13.0968 -0.171904 -0.0728775)
(13.1813 -0.144366 -0.0612166)
(13.2543 -0.121862 -0.0516257)
(13.3183 -0.10347 -0.0438276)
(13.3744 -0.0884709 -0.037479)
(13.4236 -0.0761483 -0.0322668)
(13.467 -0.0659251 -0.0279462)
(13.5053 -0.0573349 -0.024329)
(13.5395 -0.0498961 -0.0211721)
(13.5681 -0.0433148 -0.0185472)
(13.6024 -0.0365841 -0.0151789)
(13.9857 0.27619 0.0941251)
(13.9097 0.826701 0.277408)
(13.884 1.48706 0.492259)
(13.98 2.28265 0.646688)
(14.7365 2.88329 0.843528)
(16.0786 2.67862 0.718991)
(16.6445 0.484752 0.11509)
(14.7775 -1.06332 -0.324491)
(13.5593 -1.27194 -0.381658)
(12.9743 -1.13233 -0.33666)
(12.7185 -0.966382 -0.284609)
(12.6257 -0.81924 -0.239616)
(12.6217 -0.691112 -0.201257)
(12.6687 -0.579671 -0.168302)
(12.7439 -0.483788 -0.140159)
(12.8322 -0.402554 -0.116446)
(12.9242 -0.334708 -0.0967377)
(13.0137 -0.278674 -0.0805522)
(13.0995 -0.23342 -0.0673854)
(13.2457 -0.188473 -0.0615244)
(13.3054 -0.160545 -0.0524344)
(13.3591 -0.137291 -0.044816)
(13.4076 -0.117928 -0.0385002)
(13.4511 -0.101848 -0.0332628)
(13.4901 -0.0884324 -0.0288986)
(13.5251 -0.0771607 -0.0252368)
(13.5566 -0.0675884 -0.0221421)
(13.5851 -0.0592378 -0.0194215)
(13.6093 -0.0517705 -0.0171477)
(13.6391 -0.0441573 -0.0141893)
(13.9994 0.242224 0.0677927)
(13.999 0.70048 0.19369)
(14.0537 1.16945 0.321075)
(14.2873 1.56049 0.431854)
(14.7253 1.63567 0.447033)
(15.1747 1.48127 0.338419)
(15.2574 0.555023 0.120463)
(14.544 -0.21162 -0.0741802)
(14.0411 -0.48896 -0.145782)
(13.6837 -0.585593 -0.164601)
(13.4604 -0.590783 -0.161451)
(13.3285 -0.556837 -0.149978)
(13.2578 -0.507526 -0.135517)
(13.2289 -0.453184 -0.120319)
(13.2285 -0.398948 -0.105504)
(13.2467 -0.347693 -0.0917113)
(13.2766 -0.300979 -0.0792816)
(13.3128 -0.259522 -0.0683624)
(13.3525 -0.222932 -0.0588662)
(13.3926 -0.192159 -0.0507805)
(13.4312 -0.1662 -0.0439364)
(13.4676 -0.144033 -0.0380983)
(13.5018 -0.125223 -0.0331442)
(13.5334 -0.109301 -0.0289533)
(13.5624 -0.0957995 -0.0254059)
(13.5892 -0.0843047 -0.0223918)
(13.6137 -0.0744389 -0.0198207)
(13.6364 -0.0657669 -0.0175454)
(13.656 -0.0579474 -0.0156366)
(13.6809 -0.0499076 -0.0131105)
(14.0067 0.20095 0.0477293)
(14.0447 0.574151 0.134404)
(14.1312 0.92298 0.214462)
(14.318 1.18481 0.275592)
(14.5909 1.21755 0.279372)
(14.8018 0.929707 0.204521)
(14.7785 0.475714 0.101922)
(14.5342 0.0529019 0.00210746)
(14.2313 -0.207098 -0.0551565)
(13.9757 -0.341684 -0.0825596)
(13.7867 -0.398192 -0.0929325)
(13.6552 -0.410207 -0.0939367)
(13.5687 -0.39777 -0.0900107)
(13.5159 -0.372343 -0.0835959)
(13.4881 -0.34062 -0.0760558)
(13.4783 -0.306693 -0.0682196)
(13.4813 -0.273106 -0.0605957)
(13.4929 -0.241434 -0.053489)
(13.5099 -0.212186 -0.0470249)
(13.5303 -0.186253 -0.0412742)
(13.5521 -0.163508 -0.0362638)
(13.5742 -0.143626 -0.0318901)
(13.596 -0.12638 -0.0280962)
(13.617 -0.111491 -0.0248246)
(13.637 -0.098661 -0.0220116)
(13.6561 -0.0875957 -0.0195921)
(13.674 -0.0780059 -0.0175111)
(13.6911 -0.0695225 -0.0156605)
(13.7062 -0.0618277 -0.0141061)
(13.7261 -0.0537947 -0.012009)
(14.0097 0.159724 0.0330953)
(14.0629 0.458772 0.093028)
(14.1558 0.728479 0.1458)
(14.3077 0.921111 0.182977)
(14.496 0.951147 0.186221)
(14.6334 0.773821 0.14764)
(14.6364 0.480799 0.0890375)
(14.509 0.182708 0.0296767)
(14.3238 -0.0355607 -0.011867)
(14.1451 -0.17442 -0.0373436)
(13.9957 -0.253281 -0.0512371)
(13.8795 -0.291095 -0.0574462)
(13.7936 -0.302474 -0.0588666)
(13.7329 -0.297446 -0.057402)
(13.6921 -0.282659 -0.0542546)
(13.6668 -0.262529 -0.0502186)
(13.6533 -0.239988 -0.0458156)
(13.6485 -0.217002 -0.0413868)
(13.65 -0.194696 -0.0371288)
(13.656 -0.173767 -0.0331749)
(13.6648 -0.15476 -0.0295996)
(13.6754 -0.137711 -0.0263937)
(13.687 -0.122581 -0.0235495)
(13.6991 -0.109267 -0.0210494)
(13.7113 -0.0976162 -0.0188661)
(13.7234 -0.0874474 -0.0169666)
(13.7353 -0.078564 -0.0153219)
(13.7472 -0.070675 -0.013857)
(13.758 -0.063505 -0.0126298)
(13.7732 -0.0558613 -0.0109396)
(14.0099 0.122537 0.0227611)
(14.0655 0.359455 0.0646278)
(14.1536 0.574122 0.10109)
(14.2792 0.726082 0.126086)
(14.4203 0.760706 0.130141)
(14.5241 0.654506 0.109728)
(14.5446 0.459019 0.0754649)
(14.4811 0.244395 0.0383648)
(14.3691 0.0667647 0.00868509)
(14.2466 -0.0618871 -0.0123283)
(14.1332 -0.146496 -0.0258916)
(14.0369 -0.19666 -0.0337664)
(13.9592 -0.22215 -0.0376561)
(13.8988 -0.230712 -0.0388552)
(13.8534 -0.228127 -0.038296)
(13.8203 -0.218555 -0.0366425)
(13.7973 -0.204924 -0.0343602)
(13.7822 -0.189291 -0.0317724)
(13.7732 -0.172996 -0.0290903)
(13.7689 -0.156927 -0.0264589)
(13.7681 -0.141734 -0.0239759)
(13.7698 -0.127688 -0.0216796)
(13.7732 -0.114922 -0.0195913)
(13.7779 -0.103472 -0.0177183)
(13.7835 -0.0933014 -0.016057)
(13.7897 -0.0843305 -0.0145961)
(13.7963 -0.0764505 -0.0133256)
(13.8034 -0.069454 -0.0121974)
(13.8103 -0.063128 -0.0112606)
(13.8211 -0.0561992 -0.00994374)
(14.0085 0.0908477 0.0156403)
(14.0597 0.276638 0.0453855)
(14.1387 0.450542 0.0717593)
(14.2446 0.575902 0.0900806)
(14.3586 0.614724 0.0948782)
(14.4467 0.553025 0.0842234)
(14.4804 0.421339 0.0636349)
(14.4561 0.265161 0.039628)
(14.3919 0.123465 0.0183716)
(14.3107 0.0111297 0.0017082)
(14.2275 -0.0700422 -0.0102809)
(14.1507 -0.123993 -0.018251)
(14.0839 -0.156556 -0.0231052)
(14.0281 -0.173328 -0.025667)
(13.9827 -0.178945 -0.0266071)
(13.9467 -0.177011 -0.0264404)
(13.9186 -0.17021 -0.025552)
(13.8972 -0.16051 -0.0242242)
(13.8813 -0.149288 -0.0226566)
(13.8699 -0.137507 -0.0209911)
(13.862 -0.12585 -0.0193302)
(13.8569 -0.114714 -0.0177324)
(13.854 -0.104337 -0.0162354)
(13.8528 -0.0948499 -0.0148618)
(13.8528 -0.086303 -0.0136231)
(13.854 -0.0786964 -0.0125228)
(13.856 -0.0720014 -0.0115637)
(13.8589 -0.066095 -0.0107203)
(13.8622 -0.0608546 -0.0100325)
(13.8689 -0.0549163 -0.00904975)
(14.0061 0.0648352 0.0108263)
(14.0497 0.208746 0.0325137)
(14.1187 0.350258 0.0524811)
(14.21 0.455324 0.0668637)
(14.3082 0.495835 0.0720682)
(14.3895 0.46245 0.066859)
(14.4336 0.373925 0.0542507)
(14.4357 0.260424 0.0382766)
(14.4045 0.149581 0.022867)
(14.354 0.0554272 0.00977248)
(14.2954 -0.0174327 -0.00044834)
(14.2363 -0.0696608 -0.00789615)
(14.181 -0.104318 -0.0129817)
(14.1316 -0.125164 -0.0161949)
(14.0887 -0.135723 -0.0179942)
(14.0524 -0.138921 -0.0187593)
(14.0221 -0.137069 -0.0187942)
(13.9971 -0.131936 -0.0183354)
(13.9768 -0.124818 -0.01756)
(13.9605 -0.116654 -0.0166003)
(13.9476 -0.10812 -0.0155549)
(13.9374 -0.0996597 -0.0144899)
(13.9295 -0.0915618 -0.0134514)
(13.9235 -0.0840106 -0.0124707)
(13.9191 -0.0771149 -0.011569)
(13.9159 -0.070935 -0.0107594)
(13.914 -0.0655113 -0.0100535)
(13.9132 -0.0608019 -0.0094447)
(13.9133 -0.0568154 -0.00896351)
(13.9161 -0.052108 -0.00827436)
(14.0031 0.0441254 0.00759791)
(14.0381 0.153562 0.0240165)
(14.0978 0.267254 0.0398918)
(14.1787 0.354191 0.0518341)
(14.2678 0.393282 0.0571979)
(14.3468 0.377918 0.0551133)
(14.3998 0.319676 0.0473201)
(14.4208 0.238577 0.0364194)
(14.4136 0.15417 0.0250401)
(14.3866 0.0783224 0.0146757)
(14.348 0.0163853 0.00602276)
(14.3043 -0.030546 -0.000744774)
(14.2598 -0.0637389 -0.00574977)
(14.2173 -0.0855224 -0.00925588)
(14.1782 -0.0983987 -0.0115563)
(14.1431 -0.104625 -0.0129213)
(14.1123 -0.106082 -0.0135846)
(14.0855 -0.10427 -0.0137393)
(14.0625 -0.100329 -0.0135384)
(14.0429 -0.0951103 -0.0131014)
(14.0262 -0.0892387 -0.0125209)
(14.0123 -0.0831494 -0.0118645)
(14.0005 -0.0771413 -0.011182)
(13.9907 -0.0714199 -0.01051)
(13.9826 -0.0661251 -0.00987545)
(13.9759 -0.0613571 -0.00929819)
(13.9705 -0.0572132 -0.00879473)
(13.9664 -0.0537236 -0.0083745)
(13.9636 -0.0510829 -0.00805891)
(13.9626 -0.0478257 -0.00762461)
(13.9998 0.0281107 0.0053849)
(14.0265 0.108749 0.0184731)
(14.0789 0.196715 0.0318244)
(14.1527 0.265615 0.0422587)
(14.2368 0.300339 0.0476863)
(14.316 0.296121 0.0474737)
(14.3767 0.25978 0.0426893)
(14.4122 0.204156 0.0350718)
(14.4232 0.142694 0.0264619)
(14.4147 0.0846747 0.018099)
(14.3925 0.0351135 0.0106862)
(14.3621 -0.00413867 0.00453499)
(14.3275 -0.0332748 -0.000312036)
(14.2918 -0.0535534 -0.00396185)
(14.2568 -0.0666221 -0.00658607)
(14.2239 -0.0741132 -0.00837017)
(14.1935 -0.0774636 -0.00949043)
(14.1659 -0.0778625 -0.0101026)
(14.1413 -0.0762469 -0.0103377)
(14.1195 -0.0733326 -0.010303)
(14.1002 -0.0696568 -0.0100847)
(14.0833 -0.0656071 -0.00974979)
(14.0686 -0.0614597 -0.00934976)
(14.0558 -0.0574139 -0.00892438)
(14.0446 -0.0536169 -0.00850409)
(14.0349 -0.0501879 -0.00811374)
(14.0265 -0.0472672 -0.00777187)
(14.0193 -0.0449359 -0.00750129)
(14.0138 -0.0436347 -0.00731274)
(14.0088 -0.0420293 -0.00709894)
(13.997 0.0159723 0.00371541)
(14.0169 0.0720804 0.0149445)
(14.0639 0.134916 0.0269229)
(14.133 0.185095 0.0365089)
(14.2145 0.213 0.0420556)
(14.2951 0.215118 0.0430938)
(14.3626 0.194832 0.0402967)
(14.41 0.159742 0.0348665)
(14.4358 0.118467 0.028154)
(14.4426 0.0776129 0.0211958)
(14.4343 0.0412643 0.0146713)
(14.4155 0.0113415 0.00896071)
(14.39 -0.0117662 0.00421504)
(14.3608 -0.0285935 0.000435075)
(14.3302 -0.0401045 -0.00246174)
(14.2997 -0.047366 -0.00459546)
(14.2704 -0.0513769 -0.00609664)
(14.2428 -0.0529978 -0.0070909)
(14.2173 -0.0529278 -0.00769091)
(14.1939 -0.0517146 -0.00799362)
(14.1728 -0.0497763 -0.00808018)
(14.1537 -0.0474236 -0.00801648)
(14.1366 -0.044883 -0.00785519)
(14.1212 -0.0423252 -0.00763854)
(14.1074 -0.0398824 -0.00739941)
(14.0951 -0.0376709 -0.00716666)
(14.0841 -0.0358534 -0.00695875)
(14.074 -0.0345265 -0.00680903)
(14.0658 -0.0343979 -0.00671276)
(14.0563 -0.0345567 -0.00668892)
(13.9961 0.00631708 0.00216257)
(14.0108 0.0415097 0.0130089)
(14.0533 0.0791569 0.0244152)
(14.1184 0.110132 0.0336807)
(14.1978 0.129274 0.0395843)
(14.2802 0.133994 0.0417066)
(14.3545 0.125187 0.0404116)
(14.413 0.10665 0.0365508)
(14.4525 0.0831078 0.0311574)
(14.4734 0.0585841 0.0251335)
(14.4783 0.0358599 0.0191484)
(14.4707 0.0164756 0.0136366)
(14.4542 0.000983487 0.00883189)
(14.4317 -0.0107185 0.0048197)
(14.4059 -0.0190823 0.00158726)
(14.3784 -0.0246939 -0.000933513)
(14.3507 -0.0281464 -0.00283665)
(14.3237 -0.0299733 -0.0042239)
(14.2978 -0.0306205 -0.00519368)
(14.2735 -0.0304445 -0.00583528)
(14.2509 -0.0297208 -0.00622641)
(14.2301 -0.028659 -0.00643287)
(14.2109 -0.0274114 -0.00650871)
(14.1933 -0.0261002 -0.00649899)
(14.1772 -0.0248163 -0.0064387)
(14.1624 -0.023649 -0.00636055)
(14.1489 -0.0227554 -0.00628245)
(14.1359 -0.0221524 -0.00624487)
(14.1252 -0.0227858 -0.0062155)
(14.1095 -0.0246062 -0.00635451)
(13.9983 0.000615539 0.000986379)
(14.0093 0.0161815 0.0119806)
(14.0453 0.033384 0.0234352)
(14.1042 0.0491294 0.0330851)
(14.1798 0.0608648 0.0399701)
(14.263 0.0668007 0.0436044)
(14.3442 0.0664376 0.044041)
(14.4149 0.0607181 0.0417978)
(14.4699 0.0514352 0.0376542)
(14.5076 0.0404553 0.0324077)
(14.5288 0.0293089 0.0267361)
(14.5357 0.0190448 0.0211482)
(14.5312 0.0102395 0.0159799)
(14.5183 0.00309797 0.0114169)
(14.4995 -0.00241587 0.00753267)
(14.477 -0.00647669 0.00432491)
(14.4524 -0.00932079 0.00174435)
(14.4271 -0.0111936 -0.000282892)
(14.4019 -0.0123199 -0.00183984)
(14.3773 -0.0128919 -0.00300924)
(14.3537 -0.0130655 -0.00386766)
(14.3314 -0.0129647 -0.00448328)
(14.3103 -0.0126839 -0.00491438)
(14.2906 -0.0122972 -0.00521117)
(14.2721 -0.0118655 -0.00541383)
(14.2547 -0.0114317 -0.00556074)
(14.2386 -0.0111016 -0.00567107)
(14.2221 -0.0108526 -0.0057981)
(14.2095 -0.0111199 -0.00586083)
(14.1836 -0.0128561 -0.00613549)
(13.9145 0.0601293 0.304803)
(13.5022 0.203811 1.03464)
(12.6304 0.221439 2.05791)
(10.7675 0.255659 4.51387)
(1.55479 -0.0181069 -1.27766)
(7.26525 -0.140426 -2.65489)
(8.54394 -0.10179 -1.80553)
(9.4983 -0.0731413 -1.26717)
(10.2754 -0.0529681 -0.91129)
(10.9062 -0.0388385 -0.666846)
(11.414 -0.0288751 -0.495473)
(11.8208 -0.0217883 -0.373792)
(12.1464 -0.0166958 -0.286407)
(12.4081 -0.0130008 -0.222998)
(12.6689 -0.019669 -0.178602)
(12.9067 -0.0291264 -0.147304)
(13.0272 -0.0240288 -0.121581)
(13.1273 -0.0199357 -0.10097)
(13.2123 -0.0166942 -0.0845381)
(13.2849 -0.0141108 -0.0714282)
(13.3472 -0.0120246 -0.060849)
(13.4011 -0.0103195 -0.0522031)
(13.4478 -0.0089119 -0.0450349)
(13.489 -0.00768303 -0.0388702)